----- GAMESS execution script 'rungms' -----
This job is running on host 22ec555504ab
under operating system Linux at Tue Aug 11 20:30:56 UTC 2020
Available scratch disk space (Kbyte units) at beginning of the job is
Filesystem                  1K-blocks      Used Available Use% Mounted on
/dev/mapper/ubuntu--vg-root 463064920 324635844 117399888  74% /home
GAMESS temporary binary files will be written to /home/alain/projects/02-lih-soran
GAMESS supplementary output files will be written to /home/alain/projects/02-lih-soran
Copying input file lih_hessian_ccsd.inp to your run's scratch directory...
MPI kickoff will run GAMESS on 4 cores in 1 nodes.
The binary to be executed is /home/alain/prog_libs/sources/programs/gamess_28_08_2019/gamess.01.x
MPI will run 4 compute processes and 4 data servers,
    placing 10 of each process type onto each node.
The scratch disk space on each node is /home/alain/projects/02-lih-soran, with free space
Filesystem                  1K-blocks      Used Available Use% Mounted on
/dev/mapper/ubuntu--vg-root 463064920 324635852 117399880  74% /home
          ******************************************************
          *         GAMESS VERSION = 02 AUG 2018 (R2)         *
          *             FROM IOWA STATE UNIVERSITY             *
          * M.W.SCHMIDT, K.K.BALDRIDGE, J.A.BOATZ, S.T.ELBERT, *
          *   M.S.GORDON, J.H.JENSEN, S.KOSEKI, N.MATSUNAGA,   *
          *          K.A.NGUYEN, S.J.SU, T.L.WINDUS,           *
          *       TOGETHER WITH M.DUPUIS, J.A.MONTGOMERY       *
          *         J.COMPUT.CHEM.  14, 1347-1363(1993)        *
          **************** 64 BIT LINUX VERSION ****************

  SINCE 1993, STUDENTS AND POSTDOCS WORKING AT IOWA STATE UNIVERSITY
  AND ALSO IN THEIR VARIOUS JOBS AFTER LEAVING ISU HAVE MADE IMPORTANT
  CONTRIBUTIONS TO THE CODE:
     IVANA ADAMOVIC, CHRISTINE AIKENS, YURI ALEXEEV, POOJA ARORA,
     ANDREY ASADCHEV, ROB BELL, PRADIPTA BANDYOPADHYAY, JONATHAN BENTZ,
     BRETT BODE, KURT BRORSEN, CALEB CARLIN, GALINA CHABAN, WEI CHEN,
     CHEOL HO CHOI, PAUL DAY, ALBERT DEFUSCO, NUWAN DESILVA, TIM DUDLEY,
     DMITRI FEDOROV, ALEX FINDLATER, GRAHAM FLETCHER, MARK FREITAG,
     KURT GLAESEMANN, ANASTASIA GUININA,
     DAN KEMP, GRANT MERRILL, NORIYUKI MINEZAWA, JONATHAN MULLIN,
     TAKESHI NAGATA, SEAN NEDD, HEATHER NETZLOFF, BOSILJKA NJEGIC, RYAN OLSON,
     MIKE PAK, BUU PHAM,
     SPENCER PRUITT, LUKE ROSKOP, JIM SHOEMAKER, LYUDMILA SLIPCHENKO,
     TONY SMITH, SAROM SOK LEANG, JIE SONG, TETSUYA TAKETSUGU, SIMON WEBB,
     PENG XU, SOOHAENG YOO, FEDERICO ZAHARIEV

  ADDITIONAL CODE HAS BEEN PROVIDED BY COLLABORATORS IN OTHER GROUPS:
     IOWA STATE UNIVERSITY:
          JOE IVANIC, AARON WEST, LAIMUTIS BYTAUTAS, KLAUS RUEDENBERG
     UNIVERSITY OF TOKYO: KIMIHIKO HIRAO, TAKAHITO NAKAJIMA,
          TAKAO TSUNEDA, MUNEAKI KAMIYA, SUSUMU YANAGISAWA,
          KIYOSHI YAGI, MAHITO CHIBA, SEIKEN TOKURA, NAOAKI KAWAKAMI
     UNIVERSITY OF AARHUS: FRANK JENSEN
     UNIVERSITY OF IOWA: VISVALDAS KAIRYS, HUI LI
     NATIONAL INST. OF STANDARDS AND TECHNOLOGY: WALT STEVENS, DAVID GARMER
     UNIVERSITY OF PISA: BENEDETTA MENNUCCI, JACOPO TOMASI
     UNIVERSITY OF MEMPHIS: HENRY KURTZ, PRAKASHAN KORAMBATH
     UNIVERSITY OF ALBERTA: TOBY ZENG, MARIUSZ KLOBUKOWSKI
     UNIVERSITY OF NEW ENGLAND: MARK SPACKMAN
     MIE UNIVERSITY: HIROAKI UMEDA
     NAT. INST. OF ADVANCED INDUSTRIAL SCIENCE AND TECHNOLOGY: KAZUO KITAURA
     MICHIGAN STATE UNIVERSITY:
          KAROL KOWALSKI, MARTA WLOCH, JEFFREY GOUR, JESSE LUTZ,
          WEI LI, JUN SHEN, J. EMILIANO DEUSTUA, PIOTR PIECUCH
     UNIVERSITY OF MINNESOTA:
          YINAN SHU
     UNIVERSITY OF SILESIA: MONIKA MUSIAL, STANISLAW KUCHARSKI
     FACULTES UNIVERSITAIRES NOTRE-DAME DE LA PAIX:
          OLIVIER QUINET, BENOIT CHAMPAGNE
     UNIVERSITY OF CALIFORNIA - SANTA BARBARA: BERNARD KIRTMAN
     INSTITUTE FOR MOLECULAR SCIENCE:
          KAZUYA ISHIMURA, MICHIO KATOUDA, AND SHIGERU NAGASE
     UNIVERSITY OF NOTRE DAME: ANNA POMOGAEVA, DAN CHIPMAN
     KYUSHU UNIVERSITY:
          HARUYUKI NAKANO,
          FENG LONG GU, JACEK KORCHOWIEC, MARCIN MAKOWSKI, AND YURIKO AOKI,
          HIROTOSHI MORI AND EISAKU MIYOSHI
     PENNSYLVANIA STATE UNIVERSITY:
          TZVETELIN IORDANOV, CHET SWALINA, JONATHAN SKONE,
          SHARON HAMMES-SCHIFFER
     WASEDA UNIVERSITY:
          MASATO KOBAYASHI, TOMOKO AKAMA, TSUGUKI TOUMA,
          TAKESHI YOSHIKAWA, YASUHIRO IKABATA, JUNJI SEINO,
          YUYA NAKAJIMA, HIROMI NAKAI
     NANJING UNIVERSITY: SHUHUA LI
     UNIVERSITY OF NEBRASKA:
          PEIFENG SU, DEJUN SI, NANDUN THELLAMUREGE, YALI WANG, HUI LI
     UNIVERSITY OF ZURICH: ROBERTO PEVERATI, KIM BALDRIDGE
     N. COPERNICUS UNIVERSITY AND JACKSON STATE UNIVERSITY:
          MARIA BARYSZ
     UNIVERSITY OF COPENHAGEN: Jimmy Kromann, CASPER STEINMANN
     TOKYO INSTITUTE OF TECHNOLOGY: HIROYA NAKATA
     NAGOYA UNIVERSITY: YOSHIO NISHIMOTO, STEPHAN IRLE
     MOSCOW STATE UNIVERSITY: VLADIMIR MIRONOV


 PARALLEL VERSION RUNNING ON        2 PROCESSORS IN        1 NODES.

 EXECUTION OF GAMESS BEGUN Tue Aug 11 20:30:57 2020

            ECHO OF THE FIRST FEW INPUT CARDS -
 INPUT CARD> $CONTRL runtyp=hessian scftyp=rhf cctyp=ccsd maxit=200 $END                    
 INPUT CARD>                                                                                
 INPUT CARD> $BASIS gbasis=sto6g extfil=.true. $END                                         
 INPUT CARD>                                                                                
 INPUT CARD> $SYSTEM mwords=900 memddi=2 parall=.true. $END                                 
 INPUT CARD>                                                                                
 INPUT CARD> $FORCE method=fullnum vibsiz=0.01 nvib=2 $END                                  
 INPUT CARD>                                                                                
 INPUT CARD> $DATA                                                                          
 INPUT CARD>Hessian + Freq calculations for LiH. STO-6g/CCSD                                
 INPUT CARD>C1                                                                              
 INPUT CARD>LI          3.0   0.0000000000   0.0000000000  -0.7708757370                    
 INPUT CARD>H           1.0   0.0000000000  -0.0000000000   0.7708757370                    
 INPUT CARD> $END                                                                           
  900000000 WORDS OF MEMORY AVAILABLE

     $BASIS REQUESTS READING THE "STO6G   " BASIS SET FROM AN EXTERNAL FILE


     RUN TITLE
     ---------
 Hessian + Freq calculations for LiH. STO-6g/CCSD                                

 THE POINT GROUP OF THE MOLECULE IS C1      
 THE ORDER OF THE PRINCIPAL AXIS IS     0

 THE EXTERNAL BASIS SET FILE BEING READ IS
     "/home/alain/projects/02-lih-soran/gamess_basis_sets.txt"

 ATOM      ATOMIC                      COORDINATES (BOHR)
           CHARGE         X                   Y                   Z
 LI          3.0     0.0000000000        0.0000000000       -1.4567439135
 H           1.0     0.0000000000        0.0000000000        1.4567439135

          INTERNUCLEAR DISTANCES (ANGS.)
          ------------------------------

                1 LI         2 H     

   1 LI      0.0000000    1.5417515 *
   2 H       1.5417515 *  0.0000000  

  * ... LESS THAN  3.000


     ATOMIC BASIS SET
     ----------------
 THE CONTRACTED PRIMITIVE FUNCTIONS HAVE BEEN UNNORMALIZED
 THE CONTRACTED BASIS FUNCTIONS ARE NOW NORMALIZED TO UNITY

  SHELL TYPE  PRIMITIVE        EXPONENT          CONTRACTION COEFFICIENT(S)

 LI        

      1   S       1           167.1758462    0.009163596281
      1   S       2            30.6515084    0.049361492942
      1   S       3             8.5751875    0.168538304905
      1   S       4             2.9458083    0.370562799712
      1   S       5             1.1439436    0.416491529813
      1   S       6             0.4711391    0.130334084104

      2   L       7             6.5975640   -0.013252788089    0.003759696623
      2   L       8             1.3058301   -0.046991710138    0.037679369842
      2   L       9             0.4058510   -0.033785371509    0.173896743511
      2   L      10             0.1561455    0.250241786090    0.418036434727
      2   L      11             0.0678141    0.595117252577    0.425859547727
      2   L      12             0.0310842    0.240706176291    0.101708295506

 H         

      3   S      13            35.5232212    0.009163596282
      3   S      14             6.5131437    0.049361492943
      3   S      15             1.8221429    0.168538304910
      3   S      16             0.6259553    0.370562799722
      3   S      17             0.2430767    0.416491529824
      3   S      18             0.1001124    0.130334084108

 TOTAL NUMBER OF BASIS SET SHELLS             =    3
 NUMBER OF CARTESIAN GAUSSIAN BASIS FUNCTIONS =    6
 NUMBER OF ELECTRONS                          =    4
 CHARGE OF MOLECULE                           =    0
 SPIN MULTIPLICITY                            =    1
 NUMBER OF OCCUPIED ORBITALS (ALPHA)          =    2
 NUMBER OF OCCUPIED ORBITALS (BETA )          =    2
 TOTAL NUMBER OF ATOMS                        =    2
 THE NUCLEAR REPULSION ENERGY IS        1.0296936792

 THIS MOLECULE IS RECOGNIZED AS BEING LINEAR,
 ORBITAL LZ DEGENERACY TOLERANCE ETOLLZ= 1.00E-06

     $CONTRL OPTIONS
     ---------------
 SCFTYP=RHF          RUNTYP=HESSIAN      EXETYP=RUN     
 MPLEVL=       0     CITYP =NONE         CCTYP =CCSD         VBTYP =NONE    
 DFTTYP=NONE         TDDFT =NONE    
 MULT  =       1     ICHARG=       0     NZVAR =       0     COORD =UNIQUE  
 PP    =NONE         RELWFN=NONE         LOCAL =NONE         NUMGRD=       F
 ISPHER=      -1     NOSYM =       0     MAXIT =     200     UNITS =ANGS    
 PLTORB=       F     MOLPLT=       F     AIMPAC=       F     FRIEND=        
 NPRINT=       7     IREST =       0     GEOM  =INPUT   
 NORMF =       0     NORMP =       0     ITOL  =      20     ICUT  =       9
 INTTYP=BEST         GRDTYP=BEST         QMTTOL= 1.0E-06

     $SYSTEM OPTIONS
     ---------------
  REPLICATED MEMORY=   900000000 WORDS (ON EVERY NODE).
 DISTRIBUTED MEMDDI=           2 MILLION WORDS IN AGGREGATE,
 MEMDDI DISTRIBUTED OVER   2 PROCESSORS IS     1000000 WORDS/PROCESSOR.
 TOTAL MEMORY REQUESTED ON EACH PROCESSOR=   901000000 WORDS.
 TIMLIM=      525600.00 MINUTES, OR     365.0 DAYS.
 PARALL= T  BALTYP=  DLB     KDIAG=    0  COREFL= F
 MXSEQ2=     300 MXSEQ3=     150  mem10=         0

          ----------------
          PROPERTIES INPUT
          ----------------

     MOMENTS            FIELD           POTENTIAL          DENSITY
 IEMOM =       1   IEFLD =       0   IEPOT =       0   IEDEN =       0
 WHERE =COMASS     WHERE =NUCLEI     WHERE =NUCLEI     WHERE =NUCLEI  
 OUTPUT=BOTH       OUTPUT=BOTH       OUTPUT=BOTH       OUTPUT=BOTH    
 IEMINT=       0   IEFINT=       0                     IEDINT=       0
                                                       MORB  =       0
          EXTRAPOLATION IN EFFECT
 ORBITAL PRINTING OPTION: NPREO=     1     6     2     1

     -------------------------------
     INTEGRAL TRANSFORMATION OPTIONS
     -------------------------------
     NWORD  =            0
     CUTOFF = 1.0E-09     MPTRAN =       0
     DIRTRF =       F     AOINTS =DUP     

          ----------------------
          INTEGRAL INPUT OPTIONS
          ----------------------
 NOPK  =       1 NORDER=       0 SCHWRZ=       F

     ------------------------------------------
     THE POINT GROUP IS C1 , NAXIS= 0, ORDER= 1
     ------------------------------------------

     DIMENSIONS OF THE SYMMETRY SUBSPACES ARE
 A   =    6

 ..... DONE SETTING UP THE RUN .....
 CPU     0: STEP CPU TIME=     0.01 TOTAL CPU TIME=          0.0 (      0.0 MIN)
 TOTAL WALL CLOCK TIME=          0.0 SECONDS, CPU UTILIZATION IS   200.00%

     ---------------------------------
     HESSIAN MATRIX CONTROL PARAMETERS
     ---------------------------------
     METHOD=FULLNUM    NVIB  =       2   VIBSIZ= 0.01000
     RDHESS=       F   PURIFY=       F   PRTIFC=       F
     VIBANL=       T   DECOMP=       F   PROJCT=       F
     SCLFAC= 1.00000   PRTSCN=       F   NPRT  =       0
     PULCOR=       F   NPUN  =       0   REDOVB=       T
     HSSTYP=GENERAL 
     THERMOCHEMISTRY WILL BE PRINTED FOR    1 TEMPERATURES:
      298.15000

          ********************
          1 ELECTRON INTEGRALS
          ********************
 ...... END OF ONE-ELECTRON INTEGRALS ......
 CPU     0: STEP CPU TIME=     0.00 TOTAL CPU TIME=          0.0 (      0.0 MIN)
 TOTAL WALL CLOCK TIME=          0.0 SECONDS, CPU UTILIZATION IS   200.00%

          -------------
          GUESS OPTIONS
          -------------
          GUESS =HUCKEL            NORB  =       0          NORDER=       0
          MIX   =       F          PRTMO =       F          PUNMO =       F
          TOLZ  = 1.0E-08          TOLE  = 1.0E-05
          SYMDEN=       F          PURIFY=       F

 INITIAL GUESS ORBITALS GENERATED BY HUCKEL   ROUTINE.
 HUCKEL GUESS REQUIRES      1683 WORDS.

 SYMMETRIES FOR INITIAL GUESS ORBITALS FOLLOW.   BOTH SET(S).
     2 ORBITALS ARE OCCUPIED (    1 CORE ORBITALS).
     2=A        3=A        4=A        5=A        6=A   
 ...... END OF INITIAL ORBITAL SELECTION ......
 CPU     0: STEP CPU TIME=     0.00 TOTAL CPU TIME=          0.0 (      0.0 MIN)
 TOTAL WALL CLOCK TIME=          0.0 SECONDS, CPU UTILIZATION IS   100.00%

                    ----------------------
                    AO INTEGRAL TECHNOLOGY
                    ----------------------
     S,P,L SHELL ROTATED AXIS INTEGRALS, REPROGRAMMED BY
        KAZUYA ISHIMURA (IMS) AND JOSE SIERRA (SYNSTAR).
     S,P,D,L SHELL ROTATED AXIS INTEGRALS PROGRAMMED BY
        KAZUYA ISHIMURA (INSTITUTE FOR MOLECULAR SCIENCE).
     S,P,D,F,G SHELL TO TOTAL QUARTET ANGULAR MOMENTUM SUM 5,
        ERIC PROGRAM BY GRAHAM FLETCHER (ELORET AND NASA ADVANCED
        SUPERCOMPUTING DIVISION, AMES RESEARCH CENTER).
     S,P,D,F,G,L SHELL GENERAL RYS QUADRATURE PROGRAMMED BY
        MICHEL DUPUIS (PACIFIC NORTHWEST NATIONAL LABORATORY).

          --------------------
          2 ELECTRON INTEGRALS
          --------------------

 THE -PK- OPTION IS OFF, THE INTEGRALS ARE NOT IN SUPERMATRIX FORM.
 STORING   15000 INTEGRALS/RECORD ON DISK, USING 12 BYTES/INTEGRAL.
 TWO ELECTRON INTEGRAL EVALUATION REQUIRES   89362 WORDS OF MEMORY.
 II,JST,KST,LST =  1  1  1  1 NREC =         1 INTLOC =    1
 II,JST,KST,LST =  2  1  1  1 NREC =         1 INTLOC =    1
 II,JST,KST,LST =  3  1  1  1 NREC =         1 INTLOC =    2
 TOTAL NUMBER OF NONZERO TWO-ELECTRON INTEGRALS =                  83
          2 INTEGRAL RECORDS WERE STORED ON DISK FILE  8.
  ...... END OF TWO-ELECTRON INTEGRALS .....
 CPU     0: STEP CPU TIME=     0.01 TOTAL CPU TIME=          0.0 (      0.0 MIN)
 TOTAL WALL CLOCK TIME=          0.0 SECONDS, CPU UTILIZATION IS   100.00%

          --------------------------
                 RHF SCF CALCULATION
          --------------------------

     NUCLEAR ENERGY =         1.0296936792
     MAXIT =  200     NPUNCH=    2
     EXTRAP=T  DAMP=F  SHIFT=F  RSTRCT=F  DIIS=F  DEM=F  SOSCF=F
     DENSITY MATRIX CONV=  1.00E-06
     MEMORY REQUIRED FOR RHF ITERS=     30336 WORDS.

 ITER EX DEM     TOTAL ENERGY        E CHANGE  DENSITY CHANGE    DIIS ERROR
   1  0  0       -7.8729644189    -7.8729644189   0.539407768   0.000000000
   2  1  0       -7.9453814660    -0.0724170471   0.069121656   0.000000000
   3  2  0       -7.9514019807    -0.0060205146   0.035273719   0.000000000
   4  3  0       -7.9527474522    -0.0013454715   0.019758122   0.000000000
   5  0  0       -7.9530927111    -0.0003452589   0.022361375   0.000000000
   6  1  0       -7.9532212003    -0.0001284891   0.000221015   0.000000000
   7  2  0       -7.9532212191    -0.0000000189   0.000077731   0.000000000
   8  3  0       -7.9532212230    -0.0000000039   0.000038002   0.000000000
   9  4  0       -7.9532212241    -0.0000000011   0.000019883   0.000000000
  10  5  0       -7.9532212244    -0.0000000003   0.000010517   0.000000000
  11  6  0       -7.9532212245    -0.0000000001   0.000005573   0.000000000
  12  7  0       -7.9532212245    -0.0000000000   0.000002953   0.000000000
  13  8  0       -7.9532212245    -0.0000000000   0.000001565   0.000000000
  14  9  0       -7.9532212245    -0.0000000000   0.000000830   0.000000000

 RHF HAS CONVERGED, NOW COMPUTING EXACT TOTAL FOCK MATRIX
 FOR USE DURING THE COUPLED CLUSTER CALCULATION THAT FOLLOWS.

          -----------------
          DENSITY CONVERGED
          -----------------
     TIME TO FORM FOCK OPERATORS=       0.0 SECONDS (       0.0 SEC/ITER)
     TIME TO SOLVE SCF EQUATIONS=       0.0 SECONDS (       0.0 SEC/ITER)

 FINAL RHF ENERGY IS       -7.9532212245 AFTER  14 ITERATIONS

 LZ VALUE ANALYSIS FOR THE MOS
 ----------------------------------------
 MO     1 (    1) HAS LZ(WEIGHT)= 0.00(100.0%) 
 MO     2 (    2) HAS LZ(WEIGHT)= 0.00(100.0%) 
 MO     3 (    3) HAS LZ(WEIGHT)= 0.00(100.0%) 
 MO     4 (    4) HAS LZ(WEIGHT)=-1.00( 50.0%)  1.00( 50.0%) 
 MO     5 (    4) HAS LZ(WEIGHT)=-1.00( 50.0%)  1.00( 50.0%) 
 MO     6 (    5) HAS LZ(WEIGHT)= 0.00(100.0%) 

          ------------
          EIGENVECTORS
          ------------

                      1          2          3          4          5
                   -2.3859    -0.2908     0.0791     0.1626     0.1626
                     A          A          A          A          A   
    1  LI 1  S    0.993783  -0.161993  -0.198522   0.000000   0.000000
    2  LI 1  S    0.023466   0.440943   0.798580   0.000000   0.000000
    3  LI 1  X    0.000000   0.000000   0.000000  -0.561888   0.827214
    4  LI 1  Y    0.000000   0.000000   0.000000   0.827214   0.561888
    5  LI 1  Z   -0.006151   0.347802  -0.616041   0.000000   0.000000
    6  H  2  S    0.004730   0.552195  -0.126895   0.000000   0.000000

                      6
                    0.5635
                     A   
    1  LI 1  S    0.079743
    2  LI 1  S   -0.733214
    3  LI 1  X    0.000000
    4  LI 1  Y    0.000000
    5  LI 1  Z   -0.993765
    6  H  2  S    1.213247
 ...... END OF RHF CALCULATION ......
 CPU     0: STEP CPU TIME=     0.01 TOTAL CPU TIME=          0.0 (      0.0 MIN)
 TOTAL WALL CLOCK TIME=          0.0 SECONDS, CPU UTILIZATION IS   133.33%

     ----------------------------------------------------------------
     PROPERTY VALUES FOR THE RHF   SELF-CONSISTENT FIELD WAVEFUNCTION
     ----------------------------------------------------------------

          ---------------------------------------
          MULLIKEN AND LOWDIN POPULATION ANALYSES
          ---------------------------------------

               ----- POPULATIONS IN EACH AO -----
                             MULLIKEN      LOWDIN
              1  LI 1  S      1.99187     1.97605
              2  LI 1  S      0.56795     0.57617
              3  LI 1  X      0.00000     0.00000
              4  LI 1  Y      0.00000     0.00000
              5  LI 1  Z      0.44238     0.45002
              6  H  2  S      0.99779     0.99776

          ----- MULLIKEN ATOMIC OVERLAP POPULATIONS -----
          (OFF-DIAGONAL ELEMENTS NEED TO BE MULTIPLIED BY 2)

             1           2

    1    2.6142964
    2    0.3879104   0.6098828

          TOTAL MULLIKEN AND LOWDIN ATOMIC POPULATIONS
       ATOM         MULL.POP.    CHARGE          LOW.POP.     CHARGE
    1 LI            3.002207   -0.002207         3.002240   -0.002240
    2 H             0.997793    0.002207         0.997760    0.002240

          -------------------------------
          BOND ORDER AND VALENCE ANALYSIS     BOND ORDER THRESHOLD=0.050
          -------------------------------

                   BOND                       BOND                       BOND
  ATOM PAIR DIST  ORDER      ATOM PAIR DIST  ORDER      ATOM PAIR DIST  ORDER
    1   2  1.542  1.000

                       TOTAL       BONDED        FREE
      ATOM            VALENCE     VALENCE     VALENCE
    1 LI                1.000       1.000       0.000
    2 H                 1.000       1.000      -0.000

          ---------------------
          ELECTROSTATIC MOMENTS
          ---------------------

 POINT   1           X           Y           Z (BOHR)    CHARGE
                 0.000000    0.000000   -1.090798       -0.00 (A.U.)
         DX          DY          DZ         /D/  (DEBYE)
     0.000000    0.000000   -4.898201    4.898201
 ...... END OF PROPERTY EVALUATION ......
 CPU     0: STEP CPU TIME=     0.00 TOTAL CPU TIME=          0.0 (      0.0 MIN)
 TOTAL WALL CLOCK TIME=          0.0 SECONDS, CPU UTILIZATION IS   133.33%

     ---------------------------
     COUPLED CLUSTER CALCULATION
     ---------------------------
 CCTYP                        =CCSD    
 TOTAL NUMBER OF MOS          =     6
 NUMBER OF OCCUPIED MOS       =     2
 NUMBER OF FROZEN CORE MOS    =     1
 NUMBER OF FROZEN VIRTUAL MOS =     0
 MAXIMUM CC ITERATIONS        =    30
 MAXIMUM DIIS ITERATIONS      =     3
 CONVERGENCE CRITERION FOR CC =     7
 AMPLITUDE ACCURACY THRESHOLD = 0.0E+00

     --------------------------------------------
     PARTIAL TWO ELECTRON INTEGRAL TRANSFORMATION
     --------------------------------------------

 NUMBER OF CORE MOLECULAR ORBITALS     =    1
 NUMBER OF OCCUPIED MOLECULAR ORBITALS =    2
 TOTAL NUMBER OF MOLECULAR ORBITALS    =    6
 TOTAL NUMBER OF ATOMIC ORBITALS       =    6
 THRESHOLD FOR KEEPING TRANSFORMED 2E- INTEGRALS = 1.000E-09

 -------------------------------     ------------------------------
 DISTRIBUTED DATA TRANSFORMATION     PROGRAM WRITTEN BY G. FLETCHER
 -------------------------------     ------------------------------

 THE DISTRIBUTED MEMORY REQUIRED FOR THIS STEP IS MEMDDI=         1 MWORDS
 CREATING DISTRIBUTED STORAGE FOR [VIR VIR|VIR OCC] INTEGRALS
 DDI: Creating Array [0] - 21 x 4 = 84 words.
 CREATING DISTRIBUTED STORAGE FOR [VIR OCC|VIR OCC] INTEGRALS
 DDI: Creating Array [1] - 36 x 1 = 36 words.
 CREATING DISTRIBUTED STORAGE FOR [VIR OCC|OCC OCC] INTEGRALS
 DDI: Creating Array [2] - 4 x 1 = 4 words.
 CREATING DISTRIBUTED STORAGE FOR [OCC OCC|OCC OCC] INTEGRALS
 DDI: Creating Array [3] - 1 x 1 = 1 words.
 CREATING DISTRIBUTED STORAGE FOR [VIR VIR|OCC OCC] INTEGRALS
 DDI: Creating Array [4] - 21 x 1 = 21 words.
 FOR    2 PROCESSORS, THE REPLICATED MEMORY NEEDED IS       44830 WORDS.

      DIRECT 4-INDEX TRANSFORMATION 
      SCHWARZ INEQUALITY TEST SKIPPED          0 INTEGRAL BLOCKS
 ... END OF INTEGRAL TRANSFORMATION ...
 CPU     0: STEP CPU TIME=     0.00 TOTAL CPU TIME=          0.0 (      0.0 MIN)
 TOTAL WALL CLOCK TIME=          0.0 SECONDS, CPU UTILIZATION IS   133.33%

   -----------------------
   COUPLED-CLUSTER PROGRAM
   -----------------------

   -------------------------------------------------------
   P.PIECUCH, S.A.KUCHARSKI, M.WLOCH, K.KOWALSKI, M.MUSIAL
   -------------------------------------------------------

 *****************************************************************
 THE FOLLOWING PAPERS SHOULD BE CITED WHEN USING COUPLED-CLUSTER
 OPTIONS:

 CCTYP = LCCD, CCD, CCSD, CCSD(T)
 P. PIECUCH, S.A. KUCHARSKI, K. KOWALSKI, AND M. MUSIAL,
 COMP. PHYS. COMMUN. 149, 71-96 (2002).

 CCTYP = R-CC, CR-CC, CCSD(TQ), CR-CC(Q)
 P. PIECUCH, S.A. KUCHARSKI, K. KOWALSKI, AND M. MUSIAL,
 COMP. PHYS. COMMUN. 149, 71-96 (2002);
 K. KOWALSKI AND P. PIECUCH, J. CHEM. PHYS. 113, 18-35 (2000);
 K. KOWALSKI AND P. PIECUCH, J. CHEM. PHYS. 113, 5644-5652 (2000).

 CCTYP = EOM-CCSD, CR-EOM
 P. PIECUCH, S.A. KUCHARSKI, K. KOWALSKI, AND M. MUSIAL,
 COMP. PHYS. COMMUN. 149, 71-96 (2002);
 K. KOWALSKI AND P. PIECUCH, J. CHEM. PHYS. 120, 1715-1738 (2004);
 M. WLOCH, J.R. GOUR, K. KOWALSKI, AND P. PIECUCH,
 J. CHEM. PHYS. 122, 214107-1 - 214107-15 (2005).

 CCTYP = CR-CCL
 P. PIECUCH, S.A. KUCHARSKI, K. KOWALSKI, AND M. MUSIAL,
 COMP. PHYS. COMMUN. 149, 71-96 (2002);
 P. PIECUCH AND M. WLOCH, J. CHEM. PHYS. 123,
 224105-1 - 224105-10 (2005).

 CCTYP = CR-EOML
 P. PIECUCH, S.A. KUCHARSKI, K. KOWALSKI, AND M. MUSIAL,
 COMP. PHYS. COMMUN. 149, 71-96 (2002);
 P. PIECUCH, J. R. GOUR, AND M. WLOCH,
 INT. J. QUANTUM CHEM. 109, 3268-3304 (2009);
 K. KOWALSKI AND P. PIECUCH,
 J. CHEM. PHYS. 120, 1715-1738 (2004).

 IN ADDITION, THE USE OF CCPRP=.TRUE. IN $CCINP AND/OR THE USE
 OF CCPRPE=.TRUE. IN $EOMINP SHOULD REFERENCE

 M. WLOCH, J.R. GOUR, K. KOWALSKI, AND P. PIECUCH,
 J. CHEM. PHYS. 122, 214107-1 - 214107-15 (2005).
 *****************************************************************

 PARALLELIZATION OF CLOSED SHELL CCSD(T) IS
 J.L.BENTZ, R.M.OLSON, M.S.GORDON, M.W.SCHMIDT, R.A.KENDALL
   COMPUT.PHYS.COMMUN.  176, 589-600(2007)
 R.M.OLSON, J.L.BENTZ, R.A.KENDALL, M.W.SCHMIDT, M.S.GORDON
   J.COMPUT.THEORET.CHEM. 3, 1312-1328(2007)

 THE FOLLOWING CALCULATIONS WILL BE PERFORMED:
                                                     CCSD   

 THE FOLLOWING ENERGY WILL BE CONSIDERED THE HIGHEST LEVEL:    CCSD   
 THE AVAILABLE REPLICATED MEMORY IS   899999776 WORDS.
 CONVERGENCE THRESHOLD:   1.0E-07
 MAXIMUM NUMBER OF ITERATIONS:   30

 RUNNING THE DISTRIBUTED DATA, PARALLEL CCSD/CCSD(T) PROGRAM...

 PARALLEL CODE WRITTEN BY RYAN M. OLSON AND JONATHAN L. BENTZ,
 BASED ON SERIAL CODE OF P.PIECUCH, S.A.KUCHARSKI, K.KOWALSKI, M.MUSIAL

 1A.  REPLICATED MEMORY REQUIRED FOR PROCESS-BASED CCSD IS        45279 WORDS.
 1B.  REPLICATED MEMORY REQUIRED FOR    NODE-BASED CCSD IS        45183 WORDS.
 THIS RUN WILL USE        45183 WORDS OF REPLICATED MEMORY.
 2.       SHARED MEMORY REQUIRED FOR THE CCSD ITERS IS               61 WORDS.
 3.  DISTRIBUTED MEMORY FOR THIS JOB IS MEMDDI=       1 MWORDS.

 EXPLANATION (WHAT TO PUT IN $SYSTEM INPUT):
 1. THE PROCESS-BASED PARALLEL CCSD WILL BE CHOSEN IF MWORDS=       1,
    OTHERWISE, ENTER MWORDS=       1 TO RUN THE NODE-BASED PARALLEL CCSD.
    IT IS ALLOCATED BY EVERY COMPUTE PROCESS, SO THE SECOND, SMALLER VALUE
    IS UNDOUBTEDLY THE WISER CHOICE.
 2. THIS MEMORY CLASS PRESENTLY HAS NO INPUT KEYWORD.
    IT IS ALLOCATED ONCE PER NODE, OUT OF THE OPERATING SYSTEM'S SYSV MEMORY.
 3. THIS VALUE INCLUDES THE INTEGRAL TRANSFORMATION'S DISTRIBUTED MEMORY,
    SO MEMDDI=      1 SHOULD BE ENOUGH FOR THE ENTIRE JOB.
    IT IS ALLOCATED ONLY ONCE, FOR THE WHOLE RUN, SPREAD ACROSS ALL NODES.

 THIS JOB IS USING   1 NODES, WITH  2 PROCESSES/NODE,
 USING INPUT MEMORY VALUES MWORDS=     900 AND MEMDDI=       2
 MOST EFFICIENT VALUES ARE MWORDS=       1 AND MEMDDI=       1
 THE INPUT VALUES MEANS EACH SMP NODE WILL ALLOCATE      23 MBYTES OF MEMORY.

 DDI: Creating Array [5] - 4 x 4 = 16 words.
 DDI: Creating Array [6] - 4 x 4 = 16 words.
 DDI: Creating Array [7] - 4 x 4 = 16 words.
 DDI: Creating Array [8] - 4 x 4 = 16 words.
 DDI: Creating Array [9] - 4 x 4 = 16 words.
 DDI: Creating Array [10] - 16 x 1 = 16 words.
 DDI: Creating Array [11] - 16 x 1 = 16 words.
 INITIALIZING INTEGRALS FOR CCSD
 RUNNING PROCESS-BASED CCSD ITERATIONS
 DDI: Creating Array [12] - 36 x 1 = 36 words.
 ITER:  1   CCSD    CORR. ENERGY:  -0.0165014298   CONV.: -2.6435E-02

 ITER  CPU TIME: TOTAL=     0.0  FORMULAE IN AO,MO BASIS=     0.0     0.0
 ITER WALL TIME: TOTAL=     0.0  FORMULAE IN AO,MO BASIS=     0.0     0.0
 IT IS BENEFICIAL TO ADD MORE PROCESSORS IF THE SCALABLE AO CONTRIBUTION'S TIME
 IS CONSIDERABLY LARGER THAN THE LESS SCALABLE MO CONTRIBUTION'S TIME.

 ITER:  2   CCSD    CORR. ENERGY:  -0.0180312681   CONV.: -9.6008E-03
 ITER:  3   CCSD    CORR. ENERGY:  -0.0189153084   CONV.:  6.8346E-04
 ITER:  4   CCSD    CORR. ENERGY:  -0.0189441929   CONV.: -1.4227E-02
 ITER:  5   CCSD    CORR. ENERGY:  -0.0189450109   CONV.: -1.4097E-02
 ITER:  6   CCSD    CORR. ENERGY:  -0.0189295266   CONV.: -1.4438E-02
 ITER:  7   CCSD    CORR. ENERGY:  -0.0192812175   CONV.: -4.2331E-03
 ITER:  8   CCSD    CORR. ENERGY:  -0.0193120140   CONV.: -1.3481E-03
 ITER:  9   CCSD    CORR. ENERGY:  -0.0193284201   CONV.: -1.2043E-04
 ITER: 10   CCSD    CORR. ENERGY:  -0.0193300044   CONV.:  2.0532E-05
 ITER: 11   CCSD    CORR. ENERGY:  -0.0193297330   CONV.:  2.2430E-06
 ITER: 12   CCSD    CORR. ENERGY:  -0.0193296241   CONV.:  9.0193E-07
 ITER: 13   CCSD    CORR. ENERGY:  -0.0193295596   CONV.:  5.6799E-07
 ITER: 14   CCSD    CORR. ENERGY:  -0.0193295201   CONV.:  6.8660E-08
 ITER: 15   CCSD    CORR. ENERGY:  -0.0193295169   CONV.:  6.8660E-08

     THE    CCSD     ITERATIONS HAVE CONVERGED

    MBPT(2) CORRELATION ENERGY:  -0.0122448375
    CCSD    CORRELATION ENERGY:  -0.0193295169

 T1 DIAGNOSTIC        =     0.02568432
 NORM OF THE T1 VECTOR=     0.03632311
 NORM OF THE T2 VECTOR=     0.14608241

 THE FIVE LARGEST T1 AMPLITUDES ARE:
 T1 AMPLITUDE IS -0.036209 FOR I=   2 -> A=   3
 T1 AMPLITUDE IS  0.002872 FOR I=   2 -> A=   6

 THE FIVE LARGEST SPIN-UNIQUE T2 AMPLITUDES ARE:
 T2 AMPLITUDE IS -0.112651 FOR I,J=   2   2 -> A,B=   6   6
 T2 AMPLITUDE IS -0.055284 FOR I,J=   2   2 -> A,B=   3   6
 T2 AMPLITUDE IS -0.031610 FOR I,J=   2   2 -> A,B=   3   3
 T2 AMPLITUDE IS -0.027731 FOR I,J=   2   2 -> A,B=   5   5
 T2 AMPLITUDE IS -0.027731 FOR I,J=   2   2 -> A,B=   4   4
 PRINTED T2(I-ALPHA,J-BETA -> A-ALPHA,B-BETA) VALUES
 EQUAL   T2(J-ALPHA,I-BETA -> B-ALPHA,A-BETA) AMPLITUDES.

 ....... DONE WITH CC AMPLITUDE ITERATIONS .......
 CPU     0: STEP CPU TIME=     0.03 TOTAL CPU TIME=          0.1 (      0.0 MIN)
 TOTAL WALL CLOCK TIME=          0.1 SECONDS, CPU UTILIZATION IS   100.00%

                      SUMMARY OF RESULTS

      REFERENCE ENERGY:       -7.9532212245
        MBPT(2) ENERGY:       -7.9654660620   CORR.E=  -0.0122448375
        CCSD    ENERGY:       -7.9725507414   CORR.E=  -0.0193295169

 THE FOLLOWING METHOD AND ENERGY WILL BE CONSIDERED THE HIGHEST LEVEL RESULT:
 COUPLED-CLUSTER ENERGY E(CCSD) =       -7.9725507414


 BEGINNING HESSIAN COMPUTATION BY TWICE-DIFFERENCING THE ENERGY...
 THE NUMBER OF ENERGIES AT DISPLACED GEOMETRIES WILL BE        72 AT MOST,
 BUT ADDITIONAL SYMMETRY CONSIDERATIONS TO BE MADE AT EACH
 DISPLACED GEOMETRY MAY REDUCE THIS VALUE SUBSTANTIALLY.
 A CHECK JOB WILL PRINT THE PRECISE NUMBER OF POINTS NEEDED.
 WITHOUT SYMMETRY, THE NUMBER OF ENERGIES NEEDED WOULD BE     120

 ************************************************
 * CALCULATING ENERGY     1 FOR NUMERIC HESSIAN *
 ************************************************
 MOVING ATOM   1 COORDINATE X TO        0.0200000000 A.U.
 ...... END OF ONE-ELECTRON INTEGRALS ......
 CPU     0: STEP CPU TIME=     0.00 TOTAL CPU TIME=          0.1 (      0.0 MIN)
 TOTAL WALL CLOCK TIME=          0.1 SECONDS, CPU UTILIZATION IS   100.00%
 TOTAL NUMBER OF NONZERO TWO-ELECTRON INTEGRALS =                 108
          2 INTEGRAL RECORDS WERE STORED ON DISK FILE  8.
  ...... END OF TWO-ELECTRON INTEGRALS .....
 CPU     0: STEP CPU TIME=     0.00 TOTAL CPU TIME=          0.1 (      0.0 MIN)
 TOTAL WALL CLOCK TIME=          0.1 SECONDS, CPU UTILIZATION IS   100.00%

          --------------------------
                 RHF SCF CALCULATION
          --------------------------
     DENSITY MATRIX CONV=  1.00E-06

 ITER EX DEM     TOTAL ENERGY        E CHANGE  DENSITY CHANGE    DIIS ERROR
   1  0  0       -7.9532178648    -7.9532178648   0.001453938   0.000000000
   2  1  0       -7.9532201425    -0.0000022777   0.000651285   0.000000000
   3  2  0       -7.9532206015    -0.0000004590   0.000292422   0.000000000
   4  3  0       -7.9532206942    -0.0000000927   0.000131393   0.000000000
   5  4  0       -7.9532207130    -0.0000000187   0.000059052   0.000000000
   6  5  0       -7.9532207167    -0.0000000038   0.000026542   0.000000000
   7  6  0       -7.9532207175    -0.0000000008   0.000011930   0.000000000
   8  7  0       -7.9532207177    -0.0000000002   0.000005362   0.000000000
   9  8  0       -7.9532207177    -0.0000000000   0.000002410   0.000000000
  10  9  0       -7.9532207177    -0.0000000000   0.000001083   0.000000000
  11 10  0       -7.9532207177    -0.0000000000   0.000000487   0.000000000

 RHF HAS CONVERGED, NOW COMPUTING EXACT TOTAL FOCK MATRIX
 FOR USE DURING THE COUPLED CLUSTER CALCULATION THAT FOLLOWS.

          -----------------
          DENSITY CONVERGED
          -----------------
     TIME TO FORM FOCK OPERATORS=       0.0 SECONDS (       0.0 SEC/ITER)
     TIME TO SOLVE SCF EQUATIONS=       0.0 SECONDS (       0.0 SEC/ITER)

 FINAL RHF ENERGY IS       -7.9532207177 AFTER  11 ITERATIONS

 LZ VALUE ANALYSIS FOR THE MOS
 ----------------------------------------
 MO     1 (    1) HAS LZ(WEIGHT)= 0.00(100.0%) 
 MO     2 (    2) HAS LZ(WEIGHT)= 0.00(100.0%) 
 MO     3 (    3) HAS LZ(WEIGHT)= 0.00(100.0%) 
 MO     4 (    4) HAS LZ(WEIGHT)=-1.00( 50.0%)  1.00( 50.0%) 
 MO     5 (    4) HAS LZ(WEIGHT)=-1.00( 50.0%)  1.00( 50.0%) 
 MO     6 (    5) HAS LZ(WEIGHT)= 0.00(100.0%) 
 ...... END OF RHF CALCULATION ......
 CPU     0: STEP CPU TIME=     0.01 TOTAL CPU TIME=          0.1 (      0.0 MIN)
 TOTAL WALL CLOCK TIME=          0.1 SECONDS, CPU UTILIZATION IS   114.29%

     ---------------------------
     COUPLED CLUSTER CALCULATION
     ---------------------------
 CCTYP                        =CCSD    
 TOTAL NUMBER OF MOS          =     6
 NUMBER OF OCCUPIED MOS       =     2
 NUMBER OF FROZEN CORE MOS    =     1
 NUMBER OF FROZEN VIRTUAL MOS =     0
 MAXIMUM CC ITERATIONS        =    30
 MAXIMUM DIIS ITERATIONS      =     3
 CONVERGENCE CRITERION FOR CC =     7
 AMPLITUDE ACCURACY THRESHOLD = 0.0E+00

     --------------------------------------------
     PARTIAL TWO ELECTRON INTEGRAL TRANSFORMATION
     --------------------------------------------

 NUMBER OF CORE MOLECULAR ORBITALS     =    1
 NUMBER OF OCCUPIED MOLECULAR ORBITALS =    2
 TOTAL NUMBER OF MOLECULAR ORBITALS    =    6
 TOTAL NUMBER OF ATOMIC ORBITALS       =    6
 THRESHOLD FOR KEEPING TRANSFORMED 2E- INTEGRALS = 1.000E-09

 -------------------------------     ------------------------------
 DISTRIBUTED DATA TRANSFORMATION     PROGRAM WRITTEN BY G. FLETCHER
 -------------------------------     ------------------------------

 THE DISTRIBUTED MEMORY REQUIRED FOR THIS STEP IS MEMDDI=         1 MWORDS
 CREATING DISTRIBUTED STORAGE FOR [VIR VIR|VIR OCC] INTEGRALS
 DDI: Creating Array [0] - 21 x 4 = 84 words.
 CREATING DISTRIBUTED STORAGE FOR [VIR OCC|VIR OCC] INTEGRALS
 DDI: Creating Array [1] - 36 x 1 = 36 words.
 CREATING DISTRIBUTED STORAGE FOR [VIR OCC|OCC OCC] INTEGRALS
 DDI: Creating Array [2] - 4 x 1 = 4 words.
 CREATING DISTRIBUTED STORAGE FOR [OCC OCC|OCC OCC] INTEGRALS
 DDI: Creating Array [3] - 1 x 1 = 1 words.
 CREATING DISTRIBUTED STORAGE FOR [VIR VIR|OCC OCC] INTEGRALS
 DDI: Creating Array [4] - 21 x 1 = 21 words.
 FOR    2 PROCESSORS, THE REPLICATED MEMORY NEEDED IS       44830 WORDS.

      DIRECT 4-INDEX TRANSFORMATION 
      SCHWARZ INEQUALITY TEST SKIPPED          0 INTEGRAL BLOCKS
 ... END OF INTEGRAL TRANSFORMATION ...
 CPU     0: STEP CPU TIME=     0.00 TOTAL CPU TIME=          0.1 (      0.0 MIN)
 TOTAL WALL CLOCK TIME=          0.1 SECONDS, CPU UTILIZATION IS   114.29%

   -----------------------
   COUPLED-CLUSTER PROGRAM
   -----------------------

   -------------------------------------------------------
   P.PIECUCH, S.A.KUCHARSKI, M.WLOCH, K.KOWALSKI, M.MUSIAL
   -------------------------------------------------------

 THE FOLLOWING CALCULATIONS WILL BE PERFORMED:
                                                     CCSD   

 THE FOLLOWING ENERGY WILL BE CONSIDERED THE HIGHEST LEVEL:    CCSD   
 THE AVAILABLE REPLICATED MEMORY IS   899999776 WORDS.
 CONVERGENCE THRESHOLD:   1.0E-07
 MAXIMUM NUMBER OF ITERATIONS:   30

 RUNNING THE DISTRIBUTED DATA, PARALLEL CCSD/CCSD(T) PROGRAM...

 PARALLEL CODE WRITTEN BY RYAN M. OLSON AND JONATHAN L. BENTZ,
 BASED ON SERIAL CODE OF P.PIECUCH, S.A.KUCHARSKI, K.KOWALSKI, M.MUSIAL

 1A.  REPLICATED MEMORY REQUIRED FOR PROCESS-BASED CCSD IS        45279 WORDS.
 1B.  REPLICATED MEMORY REQUIRED FOR    NODE-BASED CCSD IS        45183 WORDS.
 THIS RUN WILL USE        45183 WORDS OF REPLICATED MEMORY.
 2.       SHARED MEMORY REQUIRED FOR THE CCSD ITERS IS               61 WORDS.
 3.  DISTRIBUTED MEMORY FOR THIS JOB IS MEMDDI=       1 MWORDS.

 EXPLANATION (WHAT TO PUT IN $SYSTEM INPUT):
 1. THE PROCESS-BASED PARALLEL CCSD WILL BE CHOSEN IF MWORDS=       1,
    OTHERWISE, ENTER MWORDS=       1 TO RUN THE NODE-BASED PARALLEL CCSD.
    IT IS ALLOCATED BY EVERY COMPUTE PROCESS, SO THE SECOND, SMALLER VALUE
    IS UNDOUBTEDLY THE WISER CHOICE.
 2. THIS MEMORY CLASS PRESENTLY HAS NO INPUT KEYWORD.
    IT IS ALLOCATED ONCE PER NODE, OUT OF THE OPERATING SYSTEM'S SYSV MEMORY.
 3. THIS VALUE INCLUDES THE INTEGRAL TRANSFORMATION'S DISTRIBUTED MEMORY,
    SO MEMDDI=      1 SHOULD BE ENOUGH FOR THE ENTIRE JOB.
    IT IS ALLOCATED ONLY ONCE, FOR THE WHOLE RUN, SPREAD ACROSS ALL NODES.

 THIS JOB IS USING   1 NODES, WITH  2 PROCESSES/NODE,
 USING INPUT MEMORY VALUES MWORDS=     900 AND MEMDDI=       2
 MOST EFFICIENT VALUES ARE MWORDS=       1 AND MEMDDI=       1
 THE INPUT VALUES MEANS EACH SMP NODE WILL ALLOCATE      23 MBYTES OF MEMORY.

 DDI: Creating Array [5] - 4 x 4 = 16 words.
 DDI: Creating Array [6] - 4 x 4 = 16 words.
 DDI: Creating Array [7] - 4 x 4 = 16 words.
 DDI: Creating Array [8] - 4 x 4 = 16 words.
 DDI: Creating Array [9] - 4 x 4 = 16 words.
 DDI: Creating Array [10] - 16 x 1 = 16 words.
 DDI: Creating Array [11] - 16 x 1 = 16 words.
 INITIALIZING INTEGRALS FOR CCSD
 RUNNING PROCESS-BASED CCSD ITERATIONS
 DDI: Creating Array [12] - 36 x 1 = 36 words.
 ITER:  1   CCSD    CORR. ENERGY:  -0.0165017918   CONV.: -2.6435E-02

 ITER  CPU TIME: TOTAL=     0.0  FORMULAE IN AO,MO BASIS=     0.0     0.0
 ITER WALL TIME: TOTAL=     0.0  FORMULAE IN AO,MO BASIS=     0.0     0.0
 IT IS BENEFICIAL TO ADD MORE PROCESSORS IF THE SCALABLE AO CONTRIBUTION'S TIME
 IS CONSIDERABLY LARGER THAN THE LESS SCALABLE MO CONTRIBUTION'S TIME.

 ITER:  2   CCSD    CORR. ENERGY:  -0.0180316924   CONV.: -9.6012E-03
 ITER:  3   CCSD    CORR. ENERGY:  -0.0189157844   CONV.:  6.8347E-04
 ITER:  4   CCSD    CORR. ENERGY:  -0.0189446732   CONV.: -1.4228E-02
 ITER:  5   CCSD    CORR. ENERGY:  -0.0189454916   CONV.: -1.4098E-02
 ITER:  6   CCSD    CORR. ENERGY:  -0.0189300060   CONV.: -1.4438E-02
 ITER:  7   CCSD    CORR. ENERGY:  -0.0192817180   CONV.: -4.2335E-03
 ITER:  8   CCSD    CORR. ENERGY:  -0.0193125179   CONV.: -1.3482E-03
 ITER:  9   CCSD    CORR. ENERGY:  -0.0193289286   CONV.: -1.2044E-04
 ITER: 10   CCSD    CORR. ENERGY:  -0.0193305143   CONV.:  2.0534E-05
 ITER: 11   CCSD    CORR. ENERGY:  -0.0193302430   CONV.:  2.2425E-06
 ITER: 12   CCSD    CORR. ENERGY:  -0.0193301342   CONV.:  9.0197E-07
 ITER: 13   CCSD    CORR. ENERGY:  -0.0193300697   CONV.:  5.6807E-07
 ITER: 14   CCSD    CORR. ENERGY:  -0.0193300302   CONV.:  6.8651E-08
 ITER: 15   CCSD    CORR. ENERGY:  -0.0193300270   CONV.:  6.8651E-08

     THE    CCSD     ITERATIONS HAVE CONVERGED

    MBPT(2) CORRELATION ENERGY:  -0.0122450740
    CCSD    CORRELATION ENERGY:  -0.0193300270

 T1 DIAGNOSTIC        =     0.02568560
 NORM OF THE T1 VECTOR=     0.03632492
 NORM OF THE T2 VECTOR=     0.14608585

 THE FIVE LARGEST T1 AMPLITUDES ARE:
 T1 AMPLITUDE IS -0.036211 FOR I=   2 -> A=   3
 T1 AMPLITUDE IS  0.002872 FOR I=   2 -> A=   6

 THE FIVE LARGEST SPIN-UNIQUE T2 AMPLITUDES ARE:
 T2 AMPLITUDE IS -0.112653 FOR I,J=   2   2 -> A,B=   6   6
 T2 AMPLITUDE IS -0.055286 FOR I,J=   2   2 -> A,B=   3   6
 T2 AMPLITUDE IS -0.031612 FOR I,J=   2   2 -> A,B=   3   3
 T2 AMPLITUDE IS -0.027730 FOR I,J=   2   2 -> A,B=   4   4
 T2 AMPLITUDE IS -0.027730 FOR I,J=   2   2 -> A,B=   5   5
 PRINTED T2(I-ALPHA,J-BETA -> A-ALPHA,B-BETA) VALUES
 EQUAL   T2(J-ALPHA,I-BETA -> B-ALPHA,A-BETA) AMPLITUDES.

 ....... DONE WITH CC AMPLITUDE ITERATIONS .......
 CPU     0: STEP CPU TIME=     0.02 TOTAL CPU TIME=          0.1 (      0.0 MIN)
 TOTAL WALL CLOCK TIME=          0.1 SECONDS, CPU UTILIZATION IS   100.00%

                      SUMMARY OF RESULTS

      REFERENCE ENERGY:       -7.9532207177
        MBPT(2) ENERGY:       -7.9654657917   CORR.E=  -0.0122450740
        CCSD    ENERGY:       -7.9725507447   CORR.E=  -0.0193300270

 THE FOLLOWING METHOD AND ENERGY WILL BE CONSIDERED THE HIGHEST LEVEL RESULT:
 COUPLED-CLUSTER ENERGY E(CCSD) =       -7.9725507447


 ************************************************
 * CALCULATING ENERGY     2 FOR NUMERIC HESSIAN *
 ************************************************
 MOVING ATOM   1 COORDINATE X TO       -0.0200000000 A.U.
 ...... END OF ONE-ELECTRON INTEGRALS ......
 CPU     0: STEP CPU TIME=     0.00 TOTAL CPU TIME=          0.1 (      0.0 MIN)
 TOTAL WALL CLOCK TIME=          0.1 SECONDS, CPU UTILIZATION IS   100.00%
 TOTAL NUMBER OF NONZERO TWO-ELECTRON INTEGRALS =                 108
          2 INTEGRAL RECORDS WERE STORED ON DISK FILE  8.
  ...... END OF TWO-ELECTRON INTEGRALS .....
 CPU     0: STEP CPU TIME=     0.01 TOTAL CPU TIME=          0.1 (      0.0 MIN)
 TOTAL WALL CLOCK TIME=          0.1 SECONDS, CPU UTILIZATION IS   110.00%

          --------------------------
                 RHF SCF CALCULATION
          --------------------------
     DENSITY MATRIX CONV=  1.00E-06

 ITER EX DEM     TOTAL ENERGY        E CHANGE  DENSITY CHANGE    DIIS ERROR
   1  0  0       -7.9532178648    -7.9532178648   0.001453938   0.000000000
   2  1  0       -7.9532201425    -0.0000022777   0.000651285   0.000000000
   3  2  0       -7.9532206015    -0.0000004590   0.000292422   0.000000000
   4  3  0       -7.9532206942    -0.0000000927   0.000131393   0.000000000
   5  4  0       -7.9532207130    -0.0000000187   0.000059052   0.000000000
   6  5  0       -7.9532207167    -0.0000000038   0.000026542   0.000000000
   7  6  0       -7.9532207175    -0.0000000008   0.000011930   0.000000000
   8  7  0       -7.9532207177    -0.0000000002   0.000005362   0.000000000
   9  8  0       -7.9532207177    -0.0000000000   0.000002410   0.000000000
  10  9  0       -7.9532207177    -0.0000000000   0.000001083   0.000000000
  11 10  0       -7.9532207177    -0.0000000000   0.000000487   0.000000000

 RHF HAS CONVERGED, NOW COMPUTING EXACT TOTAL FOCK MATRIX
 FOR USE DURING THE COUPLED CLUSTER CALCULATION THAT FOLLOWS.

          -----------------
          DENSITY CONVERGED
          -----------------
     TIME TO FORM FOCK OPERATORS=       0.0 SECONDS (       0.0 SEC/ITER)
     TIME TO SOLVE SCF EQUATIONS=       0.0 SECONDS (       0.0 SEC/ITER)

 FINAL RHF ENERGY IS       -7.9532207177 AFTER  11 ITERATIONS

 LZ VALUE ANALYSIS FOR THE MOS
 ----------------------------------------
 MO     1 (    1) HAS LZ(WEIGHT)= 0.00(100.0%) 
 MO     2 (    2) HAS LZ(WEIGHT)= 0.00(100.0%) 
 MO     3 (    3) HAS LZ(WEIGHT)= 0.00(100.0%) 
 MO     4 (    4) HAS LZ(WEIGHT)=-1.00( 50.0%)  1.00( 50.0%) 
 MO     5 (    4) HAS LZ(WEIGHT)=-1.00( 50.0%)  1.00( 50.0%) 
 MO     6 (    5) HAS LZ(WEIGHT)= 0.00(100.0%) 
 ...... END OF RHF CALCULATION ......
 CPU     0: STEP CPU TIME=     0.00 TOTAL CPU TIME=          0.1 (      0.0 MIN)
 TOTAL WALL CLOCK TIME=          0.1 SECONDS, CPU UTILIZATION IS   110.00%

     ---------------------------
     COUPLED CLUSTER CALCULATION
     ---------------------------
 CCTYP                        =CCSD    
 TOTAL NUMBER OF MOS          =     6
 NUMBER OF OCCUPIED MOS       =     2
 NUMBER OF FROZEN CORE MOS    =     1
 NUMBER OF FROZEN VIRTUAL MOS =     0
 MAXIMUM CC ITERATIONS        =    30
 MAXIMUM DIIS ITERATIONS      =     3
 CONVERGENCE CRITERION FOR CC =     7
 AMPLITUDE ACCURACY THRESHOLD = 0.0E+00

     --------------------------------------------
     PARTIAL TWO ELECTRON INTEGRAL TRANSFORMATION
     --------------------------------------------

 NUMBER OF CORE MOLECULAR ORBITALS     =    1
 NUMBER OF OCCUPIED MOLECULAR ORBITALS =    2
 TOTAL NUMBER OF MOLECULAR ORBITALS    =    6
 TOTAL NUMBER OF ATOMIC ORBITALS       =    6
 THRESHOLD FOR KEEPING TRANSFORMED 2E- INTEGRALS = 1.000E-09

 -------------------------------     ------------------------------
 DISTRIBUTED DATA TRANSFORMATION     PROGRAM WRITTEN BY G. FLETCHER
 -------------------------------     ------------------------------

 THE DISTRIBUTED MEMORY REQUIRED FOR THIS STEP IS MEMDDI=         1 MWORDS
 CREATING DISTRIBUTED STORAGE FOR [VIR VIR|VIR OCC] INTEGRALS
 DDI: Creating Array [0] - 21 x 4 = 84 words.
 CREATING DISTRIBUTED STORAGE FOR [VIR OCC|VIR OCC] INTEGRALS
 DDI: Creating Array [1] - 36 x 1 = 36 words.
 CREATING DISTRIBUTED STORAGE FOR [VIR OCC|OCC OCC] INTEGRALS
 DDI: Creating Array [2] - 4 x 1 = 4 words.
 CREATING DISTRIBUTED STORAGE FOR [OCC OCC|OCC OCC] INTEGRALS
 DDI: Creating Array [3] - 1 x 1 = 1 words.
 CREATING DISTRIBUTED STORAGE FOR [VIR VIR|OCC OCC] INTEGRALS
 DDI: Creating Array [4] - 21 x 1 = 21 words.
 FOR    2 PROCESSORS, THE REPLICATED MEMORY NEEDED IS       44830 WORDS.

      DIRECT 4-INDEX TRANSFORMATION 
      SCHWARZ INEQUALITY TEST SKIPPED          0 INTEGRAL BLOCKS
 ... END OF INTEGRAL TRANSFORMATION ...
 CPU     0: STEP CPU TIME=     0.00 TOTAL CPU TIME=          0.1 (      0.0 MIN)
 TOTAL WALL CLOCK TIME=          0.1 SECONDS, CPU UTILIZATION IS   100.00%

   -----------------------
   COUPLED-CLUSTER PROGRAM
   -----------------------

   -------------------------------------------------------
   P.PIECUCH, S.A.KUCHARSKI, M.WLOCH, K.KOWALSKI, M.MUSIAL
   -------------------------------------------------------

 THE FOLLOWING CALCULATIONS WILL BE PERFORMED:
                                                     CCSD   

 THE FOLLOWING ENERGY WILL BE CONSIDERED THE HIGHEST LEVEL:    CCSD   
 THE AVAILABLE REPLICATED MEMORY IS   899999776 WORDS.
 CONVERGENCE THRESHOLD:   1.0E-07
 MAXIMUM NUMBER OF ITERATIONS:   30

 RUNNING THE DISTRIBUTED DATA, PARALLEL CCSD/CCSD(T) PROGRAM...

 PARALLEL CODE WRITTEN BY RYAN M. OLSON AND JONATHAN L. BENTZ,
 BASED ON SERIAL CODE OF P.PIECUCH, S.A.KUCHARSKI, K.KOWALSKI, M.MUSIAL

 1A.  REPLICATED MEMORY REQUIRED FOR PROCESS-BASED CCSD IS        45279 WORDS.
 1B.  REPLICATED MEMORY REQUIRED FOR    NODE-BASED CCSD IS        45183 WORDS.
 THIS RUN WILL USE        45183 WORDS OF REPLICATED MEMORY.
 2.       SHARED MEMORY REQUIRED FOR THE CCSD ITERS IS               61 WORDS.
 3.  DISTRIBUTED MEMORY FOR THIS JOB IS MEMDDI=       1 MWORDS.

 EXPLANATION (WHAT TO PUT IN $SYSTEM INPUT):
 1. THE PROCESS-BASED PARALLEL CCSD WILL BE CHOSEN IF MWORDS=       1,
    OTHERWISE, ENTER MWORDS=       1 TO RUN THE NODE-BASED PARALLEL CCSD.
    IT IS ALLOCATED BY EVERY COMPUTE PROCESS, SO THE SECOND, SMALLER VALUE
    IS UNDOUBTEDLY THE WISER CHOICE.
 2. THIS MEMORY CLASS PRESENTLY HAS NO INPUT KEYWORD.
    IT IS ALLOCATED ONCE PER NODE, OUT OF THE OPERATING SYSTEM'S SYSV MEMORY.
 3. THIS VALUE INCLUDES THE INTEGRAL TRANSFORMATION'S DISTRIBUTED MEMORY,
    SO MEMDDI=      1 SHOULD BE ENOUGH FOR THE ENTIRE JOB.
    IT IS ALLOCATED ONLY ONCE, FOR THE WHOLE RUN, SPREAD ACROSS ALL NODES.

 THIS JOB IS USING   1 NODES, WITH  2 PROCESSES/NODE,
 USING INPUT MEMORY VALUES MWORDS=     900 AND MEMDDI=       2
 MOST EFFICIENT VALUES ARE MWORDS=       1 AND MEMDDI=       1
 THE INPUT VALUES MEANS EACH SMP NODE WILL ALLOCATE      23 MBYTES OF MEMORY.

 DDI: Creating Array [5] - 4 x 4 = 16 words.
 DDI: Creating Array [6] - 4 x 4 = 16 words.
 DDI: Creating Array [7] - 4 x 4 = 16 words.
 DDI: Creating Array [8] - 4 x 4 = 16 words.
 DDI: Creating Array [9] - 4 x 4 = 16 words.
 DDI: Creating Array [10] - 16 x 1 = 16 words.
 DDI: Creating Array [11] - 16 x 1 = 16 words.
 INITIALIZING INTEGRALS FOR CCSD
 RUNNING PROCESS-BASED CCSD ITERATIONS
 DDI: Creating Array [12] - 36 x 1 = 36 words.
 ITER:  1   CCSD    CORR. ENERGY:  -0.0165017918   CONV.: -2.6435E-02

 ITER  CPU TIME: TOTAL=     0.0  FORMULAE IN AO,MO BASIS=     0.0     0.0
 ITER WALL TIME: TOTAL=     0.0  FORMULAE IN AO,MO BASIS=     0.0     0.0
 IT IS BENEFICIAL TO ADD MORE PROCESSORS IF THE SCALABLE AO CONTRIBUTION'S TIME
 IS CONSIDERABLY LARGER THAN THE LESS SCALABLE MO CONTRIBUTION'S TIME.

 ITER:  2   CCSD    CORR. ENERGY:  -0.0180316924   CONV.: -9.6012E-03
 ITER:  3   CCSD    CORR. ENERGY:  -0.0189157844   CONV.:  6.8347E-04
 ITER:  4   CCSD    CORR. ENERGY:  -0.0189446732   CONV.: -1.4228E-02
 ITER:  5   CCSD    CORR. ENERGY:  -0.0189454916   CONV.: -1.4098E-02
 ITER:  6   CCSD    CORR. ENERGY:  -0.0189300060   CONV.: -1.4438E-02
 ITER:  7   CCSD    CORR. ENERGY:  -0.0192817180   CONV.: -4.2335E-03
 ITER:  8   CCSD    CORR. ENERGY:  -0.0193125179   CONV.: -1.3482E-03
 ITER:  9   CCSD    CORR. ENERGY:  -0.0193289286   CONV.: -1.2044E-04
 ITER: 10   CCSD    CORR. ENERGY:  -0.0193305143   CONV.:  2.0534E-05
 ITER: 11   CCSD    CORR. ENERGY:  -0.0193302430   CONV.:  2.2425E-06
 ITER: 12   CCSD    CORR. ENERGY:  -0.0193301342   CONV.:  9.0197E-07
 ITER: 13   CCSD    CORR. ENERGY:  -0.0193300697   CONV.:  5.6807E-07
 ITER: 14   CCSD    CORR. ENERGY:  -0.0193300302   CONV.:  6.8651E-08
 ITER: 15   CCSD    CORR. ENERGY:  -0.0193300270   CONV.:  6.8651E-08

     THE    CCSD     ITERATIONS HAVE CONVERGED

    MBPT(2) CORRELATION ENERGY:  -0.0122450740
    CCSD    CORRELATION ENERGY:  -0.0193300270

 T1 DIAGNOSTIC        =     0.02568560
 NORM OF THE T1 VECTOR=     0.03632492
 NORM OF THE T2 VECTOR=     0.14608585

 THE FIVE LARGEST T1 AMPLITUDES ARE:
 T1 AMPLITUDE IS -0.036211 FOR I=   2 -> A=   3
 T1 AMPLITUDE IS  0.002872 FOR I=   2 -> A=   6

 THE FIVE LARGEST SPIN-UNIQUE T2 AMPLITUDES ARE:
 T2 AMPLITUDE IS -0.112653 FOR I,J=   2   2 -> A,B=   6   6
 T2 AMPLITUDE IS -0.055286 FOR I,J=   2   2 -> A,B=   3   6
 T2 AMPLITUDE IS -0.031612 FOR I,J=   2   2 -> A,B=   3   3
 T2 AMPLITUDE IS -0.027730 FOR I,J=   2   2 -> A,B=   4   4
 T2 AMPLITUDE IS -0.027730 FOR I,J=   2   2 -> A,B=   5   5
 PRINTED T2(I-ALPHA,J-BETA -> A-ALPHA,B-BETA) VALUES
 EQUAL   T2(J-ALPHA,I-BETA -> B-ALPHA,A-BETA) AMPLITUDES.

 ....... DONE WITH CC AMPLITUDE ITERATIONS .......
 CPU     0: STEP CPU TIME=     0.02 TOTAL CPU TIME=          0.1 (      0.0 MIN)
 TOTAL WALL CLOCK TIME=          0.1 SECONDS, CPU UTILIZATION IS   100.00%

                      SUMMARY OF RESULTS

      REFERENCE ENERGY:       -7.9532207177
        MBPT(2) ENERGY:       -7.9654657917   CORR.E=  -0.0122450740
        CCSD    ENERGY:       -7.9725507447   CORR.E=  -0.0193300270

 THE FOLLOWING METHOD AND ENERGY WILL BE CONSIDERED THE HIGHEST LEVEL RESULT:
 COUPLED-CLUSTER ENERGY E(CCSD) =       -7.9725507447


 ************************************************
 * CALCULATING ENERGY     3 FOR NUMERIC HESSIAN *
 ************************************************
 MOVING ATOM   1 COORDINATE Y TO        0.0100000000, AND
 MOVING ATOM   1 COORDINATE X TO        0.0100000000 A.U.
 ...... END OF ONE-ELECTRON INTEGRALS ......
 CPU     0: STEP CPU TIME=     0.00 TOTAL CPU TIME=          0.1 (      0.0 MIN)
 TOTAL WALL CLOCK TIME=          0.1 SECONDS, CPU UTILIZATION IS   100.00%
 TOTAL NUMBER OF NONZERO TWO-ELECTRON INTEGRALS =                 144
          2 INTEGRAL RECORDS WERE STORED ON DISK FILE  8.
  ...... END OF TWO-ELECTRON INTEGRALS .....
 CPU     0: STEP CPU TIME=     0.00 TOTAL CPU TIME=          0.1 (      0.0 MIN)
 TOTAL WALL CLOCK TIME=          0.1 SECONDS, CPU UTILIZATION IS   100.00%

          --------------------------
                 RHF SCF CALCULATION
          --------------------------
     DENSITY MATRIX CONV=  1.00E-06

 ITER EX DEM     TOTAL ENERGY        E CHANGE  DENSITY CHANGE    DIIS ERROR
   1  0  0       -7.9532195447    -7.9532195447   0.000726976   0.000000000
   2  1  0       -7.9532206836    -0.0000011389   0.000325647   0.000000000
   3  2  0       -7.9532209131    -0.0000002295   0.000146213   0.000000000
   4  3  0       -7.9532209594    -0.0000000464   0.000065698   0.000000000
   5  4  0       -7.9532209688    -0.0000000094   0.000029527   0.000000000
   6  5  0       -7.9532209707    -0.0000000019   0.000013271   0.000000000
   7  6  0       -7.9532209711    -0.0000000004   0.000005965   0.000000000
   8  7  0       -7.9532209711    -0.0000000001   0.000002681   0.000000000
   9  8  0       -7.9532209712    -0.0000000000   0.000001205   0.000000000
  10  9  0       -7.9532209712    -0.0000000000   0.000000542   0.000000000

 RHF HAS CONVERGED, NOW COMPUTING EXACT TOTAL FOCK MATRIX
 FOR USE DURING THE COUPLED CLUSTER CALCULATION THAT FOLLOWS.

          -----------------
          DENSITY CONVERGED
          -----------------
     TIME TO FORM FOCK OPERATORS=       0.0 SECONDS (       0.0 SEC/ITER)
     TIME TO SOLVE SCF EQUATIONS=       0.0 SECONDS (       0.0 SEC/ITER)

 FINAL RHF ENERGY IS       -7.9532209712 AFTER  10 ITERATIONS

 LZ VALUE ANALYSIS FOR THE MOS
 ----------------------------------------
 MO     1 (    1) HAS LZ(WEIGHT)= 0.00(100.0%) 
 MO     2 (    2) HAS LZ(WEIGHT)= 0.00(100.0%) 
 MO     3 (    3) HAS LZ(WEIGHT)= 0.00(100.0%) 
 MO     4 (    4) HAS LZ(WEIGHT)=-1.00( 50.0%)  1.00( 50.0%) 
 MO     5 (    4) HAS LZ(WEIGHT)=-1.00( 50.0%)  1.00( 50.0%) 
 MO     6 (    5) HAS LZ(WEIGHT)= 0.00(100.0%) 
 ...... END OF RHF CALCULATION ......
 CPU     0: STEP CPU TIME=     0.01 TOTAL CPU TIME=          0.1 (      0.0 MIN)
 TOTAL WALL CLOCK TIME=          0.1 SECONDS, CPU UTILIZATION IS   107.69%

     ---------------------------
     COUPLED CLUSTER CALCULATION
     ---------------------------
 CCTYP                        =CCSD    
 TOTAL NUMBER OF MOS          =     6
 NUMBER OF OCCUPIED MOS       =     2
 NUMBER OF FROZEN CORE MOS    =     1
 NUMBER OF FROZEN VIRTUAL MOS =     0
 MAXIMUM CC ITERATIONS        =    30
 MAXIMUM DIIS ITERATIONS      =     3
 CONVERGENCE CRITERION FOR CC =     7
 AMPLITUDE ACCURACY THRESHOLD = 0.0E+00

     --------------------------------------------
     PARTIAL TWO ELECTRON INTEGRAL TRANSFORMATION
     --------------------------------------------

 NUMBER OF CORE MOLECULAR ORBITALS     =    1
 NUMBER OF OCCUPIED MOLECULAR ORBITALS =    2
 TOTAL NUMBER OF MOLECULAR ORBITALS    =    6
 TOTAL NUMBER OF ATOMIC ORBITALS       =    6
 THRESHOLD FOR KEEPING TRANSFORMED 2E- INTEGRALS = 1.000E-09

 -------------------------------     ------------------------------
 DISTRIBUTED DATA TRANSFORMATION     PROGRAM WRITTEN BY G. FLETCHER
 -------------------------------     ------------------------------

 THE DISTRIBUTED MEMORY REQUIRED FOR THIS STEP IS MEMDDI=         1 MWORDS
 CREATING DISTRIBUTED STORAGE FOR [VIR VIR|VIR OCC] INTEGRALS
 DDI: Creating Array [0] - 21 x 4 = 84 words.
 CREATING DISTRIBUTED STORAGE FOR [VIR OCC|VIR OCC] INTEGRALS
 DDI: Creating Array [1] - 36 x 1 = 36 words.
 CREATING DISTRIBUTED STORAGE FOR [VIR OCC|OCC OCC] INTEGRALS
 DDI: Creating Array [2] - 4 x 1 = 4 words.
 CREATING DISTRIBUTED STORAGE FOR [OCC OCC|OCC OCC] INTEGRALS
 DDI: Creating Array [3] - 1 x 1 = 1 words.
 CREATING DISTRIBUTED STORAGE FOR [VIR VIR|OCC OCC] INTEGRALS
 DDI: Creating Array [4] - 21 x 1 = 21 words.
 FOR    2 PROCESSORS, THE REPLICATED MEMORY NEEDED IS       44830 WORDS.

      DIRECT 4-INDEX TRANSFORMATION 
      SCHWARZ INEQUALITY TEST SKIPPED          0 INTEGRAL BLOCKS
 ... END OF INTEGRAL TRANSFORMATION ...
 CPU     0: STEP CPU TIME=     0.00 TOTAL CPU TIME=          0.1 (      0.0 MIN)
 TOTAL WALL CLOCK TIME=          0.1 SECONDS, CPU UTILIZATION IS   100.00%

   -----------------------
   COUPLED-CLUSTER PROGRAM
   -----------------------

   -------------------------------------------------------
   P.PIECUCH, S.A.KUCHARSKI, M.WLOCH, K.KOWALSKI, M.MUSIAL
   -------------------------------------------------------

 THE FOLLOWING CALCULATIONS WILL BE PERFORMED:
                                                     CCSD   

 THE FOLLOWING ENERGY WILL BE CONSIDERED THE HIGHEST LEVEL:    CCSD   
 THE AVAILABLE REPLICATED MEMORY IS   899999776 WORDS.
 CONVERGENCE THRESHOLD:   1.0E-07
 MAXIMUM NUMBER OF ITERATIONS:   30

 RUNNING THE DISTRIBUTED DATA, PARALLEL CCSD/CCSD(T) PROGRAM...

 PARALLEL CODE WRITTEN BY RYAN M. OLSON AND JONATHAN L. BENTZ,
 BASED ON SERIAL CODE OF P.PIECUCH, S.A.KUCHARSKI, K.KOWALSKI, M.MUSIAL

 1A.  REPLICATED MEMORY REQUIRED FOR PROCESS-BASED CCSD IS        45279 WORDS.
 1B.  REPLICATED MEMORY REQUIRED FOR    NODE-BASED CCSD IS        45183 WORDS.
 THIS RUN WILL USE        45183 WORDS OF REPLICATED MEMORY.
 2.       SHARED MEMORY REQUIRED FOR THE CCSD ITERS IS               61 WORDS.
 3.  DISTRIBUTED MEMORY FOR THIS JOB IS MEMDDI=       1 MWORDS.

 EXPLANATION (WHAT TO PUT IN $SYSTEM INPUT):
 1. THE PROCESS-BASED PARALLEL CCSD WILL BE CHOSEN IF MWORDS=       1,
    OTHERWISE, ENTER MWORDS=       1 TO RUN THE NODE-BASED PARALLEL CCSD.
    IT IS ALLOCATED BY EVERY COMPUTE PROCESS, SO THE SECOND, SMALLER VALUE
    IS UNDOUBTEDLY THE WISER CHOICE.
 2. THIS MEMORY CLASS PRESENTLY HAS NO INPUT KEYWORD.
    IT IS ALLOCATED ONCE PER NODE, OUT OF THE OPERATING SYSTEM'S SYSV MEMORY.
 3. THIS VALUE INCLUDES THE INTEGRAL TRANSFORMATION'S DISTRIBUTED MEMORY,
    SO MEMDDI=      1 SHOULD BE ENOUGH FOR THE ENTIRE JOB.
    IT IS ALLOCATED ONLY ONCE, FOR THE WHOLE RUN, SPREAD ACROSS ALL NODES.

 THIS JOB IS USING   1 NODES, WITH  2 PROCESSES/NODE,
 USING INPUT MEMORY VALUES MWORDS=     900 AND MEMDDI=       2
 MOST EFFICIENT VALUES ARE MWORDS=       1 AND MEMDDI=       1
 THE INPUT VALUES MEANS EACH SMP NODE WILL ALLOCATE      23 MBYTES OF MEMORY.

 DDI: Creating Array [5] - 4 x 4 = 16 words.
 DDI: Creating Array [6] - 4 x 4 = 16 words.
 DDI: Creating Array [7] - 4 x 4 = 16 words.
 DDI: Creating Array [8] - 4 x 4 = 16 words.
 DDI: Creating Array [9] - 4 x 4 = 16 words.
 DDI: Creating Array [10] - 16 x 1 = 16 words.
 DDI: Creating Array [11] - 16 x 1 = 16 words.
 INITIALIZING INTEGRALS FOR CCSD
 RUNNING PROCESS-BASED CCSD ITERATIONS
 DDI: Creating Array [12] - 36 x 1 = 36 words.
 ITER:  1   CCSD    CORR. ENERGY:  -0.0165016039   CONV.: -2.6435E-02

 ITER  CPU TIME: TOTAL=     0.0  FORMULAE IN AO,MO BASIS=     0.0     0.0
 ITER WALL TIME: TOTAL=     0.0  FORMULAE IN AO,MO BASIS=     0.0     0.0
 IT IS BENEFICIAL TO ADD MORE PROCESSORS IF THE SCALABLE AO CONTRIBUTION'S TIME
 IS CONSIDERABLY LARGER THAN THE LESS SCALABLE MO CONTRIBUTION'S TIME.

 ITER:  2   CCSD    CORR. ENERGY:  -0.0180314727   CONV.: -9.6010E-03
 ITER:  3   CCSD    CORR. ENERGY:  -0.0189155383   CONV.:  6.8347E-04
 ITER:  4   CCSD    CORR. ENERGY:  -0.0189444268   CONV.: -1.4227E-02
 ITER:  5   CCSD    CORR. ENERGY:  -0.0189452450   CONV.: -1.4098E-02
 ITER:  6   CCSD    CORR. ENERGY:  -0.0189297601   CONV.: -1.4438E-02
 ITER:  7   CCSD    CORR. ENERGY:  -0.0192814650   CONV.: -4.2334E-03
 ITER:  8   CCSD    CORR. ENERGY:  -0.0193122648   CONV.: -1.3482E-03
 ITER:  9   CCSD    CORR. ENERGY:  -0.0193286741   CONV.: -1.2043E-04
 ITER: 10   CCSD    CORR. ENERGY:  -0.0193302593   CONV.:  2.0534E-05
 ITER: 11   CCSD    CORR. ENERGY:  -0.0193299879   CONV.: -2.2427E-06
 ITER: 12   CCSD    CORR. ENERGY:  -0.0193298791   CONV.:  9.0192E-07
 ITER: 13   CCSD    CORR. ENERGY:  -0.0193298146   CONV.:  5.6803E-07
 ITER: 14   CCSD    CORR. ENERGY:  -0.0193297751   CONV.:  6.8652E-08
 ITER: 15   CCSD    CORR. ENERGY:  -0.0193297720   CONV.:  6.8652E-08

     THE    CCSD     ITERATIONS HAVE CONVERGED

    MBPT(2) CORRELATION ENERGY:  -0.0122449506
    CCSD    CORRELATION ENERGY:  -0.0193297720

 T1 DIAGNOSTIC        =     0.02568523
 NORM OF THE T1 VECTOR=     0.03632440
 NORM OF THE T2 VECTOR=     0.14608413

 THE FIVE LARGEST T1 AMPLITUDES ARE:
 T1 AMPLITUDE IS -0.036211 FOR I=   2 -> A=   3
 T1 AMPLITUDE IS -0.002872 FOR I=   2 -> A=   6

 THE FIVE LARGEST SPIN-UNIQUE T2 AMPLITUDES ARE:
 T2 AMPLITUDE IS -0.112652 FOR I,J=   2   2 -> A,B=   6   6
 T2 AMPLITUDE IS  0.055285 FOR I,J=   2   2 -> A,B=   3   6
 T2 AMPLITUDE IS -0.031611 FOR I,J=   2   2 -> A,B=   3   3
 T2 AMPLITUDE IS -0.027731 FOR I,J=   2   2 -> A,B=   4   4
 T2 AMPLITUDE IS -0.027731 FOR I,J=   2   2 -> A,B=   5   5
 PRINTED T2(I-ALPHA,J-BETA -> A-ALPHA,B-BETA) VALUES
 EQUAL   T2(J-ALPHA,I-BETA -> B-ALPHA,A-BETA) AMPLITUDES.

 ....... DONE WITH CC AMPLITUDE ITERATIONS .......
 CPU     0: STEP CPU TIME=     0.03 TOTAL CPU TIME=          0.2 (      0.0 MIN)
 TOTAL WALL CLOCK TIME=          0.2 SECONDS, CPU UTILIZATION IS   100.00%

                      SUMMARY OF RESULTS

      REFERENCE ENERGY:       -7.9532209712
        MBPT(2) ENERGY:       -7.9654659217   CORR.E=  -0.0122449506
        CCSD    ENERGY:       -7.9725507431   CORR.E=  -0.0193297720

 THE FOLLOWING METHOD AND ENERGY WILL BE CONSIDERED THE HIGHEST LEVEL RESULT:
 COUPLED-CLUSTER ENERGY E(CCSD) =       -7.9725507431


 ************************************************
 * CALCULATING ENERGY     4 FOR NUMERIC HESSIAN *
 ************************************************
 MOVING ATOM   1 COORDINATE Y TO        0.0100000000, AND
 MOVING ATOM   1 COORDINATE X TO       -0.0100000000 A.U.
 ...... END OF ONE-ELECTRON INTEGRALS ......
 CPU     0: STEP CPU TIME=     0.00 TOTAL CPU TIME=          0.2 (      0.0 MIN)
 TOTAL WALL CLOCK TIME=          0.2 SECONDS, CPU UTILIZATION IS   100.00%
 TOTAL NUMBER OF NONZERO TWO-ELECTRON INTEGRALS =                 144
          2 INTEGRAL RECORDS WERE STORED ON DISK FILE  8.
  ...... END OF TWO-ELECTRON INTEGRALS .....
 CPU     0: STEP CPU TIME=     0.00 TOTAL CPU TIME=          0.2 (      0.0 MIN)
 TOTAL WALL CLOCK TIME=          0.2 SECONDS, CPU UTILIZATION IS   100.00%

          --------------------------
                 RHF SCF CALCULATION
          --------------------------
     DENSITY MATRIX CONV=  1.00E-06

 ITER EX DEM     TOTAL ENERGY        E CHANGE  DENSITY CHANGE    DIIS ERROR
   1  0  0       -7.9532195447    -7.9532195447   0.000726976   0.000000000
   2  1  0       -7.9532206836    -0.0000011389   0.000325647   0.000000000
   3  2  0       -7.9532209131    -0.0000002295   0.000146213   0.000000000
   4  3  0       -7.9532209594    -0.0000000464   0.000065698   0.000000000
   5  4  0       -7.9532209688    -0.0000000094   0.000029527   0.000000000
   6  5  0       -7.9532209707    -0.0000000019   0.000013271   0.000000000
   7  6  0       -7.9532209711    -0.0000000004   0.000005965   0.000000000
   8  7  0       -7.9532209711    -0.0000000001   0.000002681   0.000000000
   9  8  0       -7.9532209712    -0.0000000000   0.000001205   0.000000000
  10  9  0       -7.9532209712    -0.0000000000   0.000000542   0.000000000

 RHF HAS CONVERGED, NOW COMPUTING EXACT TOTAL FOCK MATRIX
 FOR USE DURING THE COUPLED CLUSTER CALCULATION THAT FOLLOWS.

          -----------------
          DENSITY CONVERGED
          -----------------
     TIME TO FORM FOCK OPERATORS=       0.0 SECONDS (       0.0 SEC/ITER)
     TIME TO SOLVE SCF EQUATIONS=       0.0 SECONDS (       0.0 SEC/ITER)

 FINAL RHF ENERGY IS       -7.9532209712 AFTER  10 ITERATIONS

 LZ VALUE ANALYSIS FOR THE MOS
 ----------------------------------------
 MO     1 (    1) HAS LZ(WEIGHT)= 0.00(100.0%) 
 MO     2 (    2) HAS LZ(WEIGHT)= 0.00(100.0%) 
 MO     3 (    3) HAS LZ(WEIGHT)= 0.00(100.0%) 
 MO     4 (    4) HAS LZ(WEIGHT)=-1.00( 50.0%)  1.00( 50.0%) 
 MO     5 (    4) HAS LZ(WEIGHT)=-1.00( 50.0%)  1.00( 50.0%) 
 MO     6 (    5) HAS LZ(WEIGHT)= 0.00(100.0%) 
 ...... END OF RHF CALCULATION ......
 CPU     0: STEP CPU TIME=     0.00 TOTAL CPU TIME=          0.2 (      0.0 MIN)
 TOTAL WALL CLOCK TIME=          0.2 SECONDS, CPU UTILIZATION IS   100.00%

     ---------------------------
     COUPLED CLUSTER CALCULATION
     ---------------------------
 CCTYP                        =CCSD    
 TOTAL NUMBER OF MOS          =     6
 NUMBER OF OCCUPIED MOS       =     2
 NUMBER OF FROZEN CORE MOS    =     1
 NUMBER OF FROZEN VIRTUAL MOS =     0
 MAXIMUM CC ITERATIONS        =    30
 MAXIMUM DIIS ITERATIONS      =     3
 CONVERGENCE CRITERION FOR CC =     7
 AMPLITUDE ACCURACY THRESHOLD = 0.0E+00

     --------------------------------------------
     PARTIAL TWO ELECTRON INTEGRAL TRANSFORMATION
     --------------------------------------------

 NUMBER OF CORE MOLECULAR ORBITALS     =    1
 NUMBER OF OCCUPIED MOLECULAR ORBITALS =    2
 TOTAL NUMBER OF MOLECULAR ORBITALS    =    6
 TOTAL NUMBER OF ATOMIC ORBITALS       =    6
 THRESHOLD FOR KEEPING TRANSFORMED 2E- INTEGRALS = 1.000E-09

 -------------------------------     ------------------------------
 DISTRIBUTED DATA TRANSFORMATION     PROGRAM WRITTEN BY G. FLETCHER
 -------------------------------     ------------------------------

 THE DISTRIBUTED MEMORY REQUIRED FOR THIS STEP IS MEMDDI=         1 MWORDS
 CREATING DISTRIBUTED STORAGE FOR [VIR VIR|VIR OCC] INTEGRALS
 DDI: Creating Array [0] - 21 x 4 = 84 words.
 CREATING DISTRIBUTED STORAGE FOR [VIR OCC|VIR OCC] INTEGRALS
 DDI: Creating Array [1] - 36 x 1 = 36 words.
 CREATING DISTRIBUTED STORAGE FOR [VIR OCC|OCC OCC] INTEGRALS
 DDI: Creating Array [2] - 4 x 1 = 4 words.
 CREATING DISTRIBUTED STORAGE FOR [OCC OCC|OCC OCC] INTEGRALS
 DDI: Creating Array [3] - 1 x 1 = 1 words.
 CREATING DISTRIBUTED STORAGE FOR [VIR VIR|OCC OCC] INTEGRALS
 DDI: Creating Array [4] - 21 x 1 = 21 words.
 FOR    2 PROCESSORS, THE REPLICATED MEMORY NEEDED IS       44830 WORDS.

      DIRECT 4-INDEX TRANSFORMATION 
      SCHWARZ INEQUALITY TEST SKIPPED          0 INTEGRAL BLOCKS
 ... END OF INTEGRAL TRANSFORMATION ...
 CPU     0: STEP CPU TIME=     0.00 TOTAL CPU TIME=          0.2 (      0.0 MIN)
 TOTAL WALL CLOCK TIME=          0.2 SECONDS, CPU UTILIZATION IS   100.00%

   -----------------------
   COUPLED-CLUSTER PROGRAM
   -----------------------

   -------------------------------------------------------
   P.PIECUCH, S.A.KUCHARSKI, M.WLOCH, K.KOWALSKI, M.MUSIAL
   -------------------------------------------------------

 THE FOLLOWING CALCULATIONS WILL BE PERFORMED:
                                                     CCSD   

 THE FOLLOWING ENERGY WILL BE CONSIDERED THE HIGHEST LEVEL:    CCSD   
 THE AVAILABLE REPLICATED MEMORY IS   899999776 WORDS.
 CONVERGENCE THRESHOLD:   1.0E-07
 MAXIMUM NUMBER OF ITERATIONS:   30

 RUNNING THE DISTRIBUTED DATA, PARALLEL CCSD/CCSD(T) PROGRAM...

 PARALLEL CODE WRITTEN BY RYAN M. OLSON AND JONATHAN L. BENTZ,
 BASED ON SERIAL CODE OF P.PIECUCH, S.A.KUCHARSKI, K.KOWALSKI, M.MUSIAL

 1A.  REPLICATED MEMORY REQUIRED FOR PROCESS-BASED CCSD IS        45279 WORDS.
 1B.  REPLICATED MEMORY REQUIRED FOR    NODE-BASED CCSD IS        45183 WORDS.
 THIS RUN WILL USE        45183 WORDS OF REPLICATED MEMORY.
 2.       SHARED MEMORY REQUIRED FOR THE CCSD ITERS IS               61 WORDS.
 3.  DISTRIBUTED MEMORY FOR THIS JOB IS MEMDDI=       1 MWORDS.

 EXPLANATION (WHAT TO PUT IN $SYSTEM INPUT):
 1. THE PROCESS-BASED PARALLEL CCSD WILL BE CHOSEN IF MWORDS=       1,
    OTHERWISE, ENTER MWORDS=       1 TO RUN THE NODE-BASED PARALLEL CCSD.
    IT IS ALLOCATED BY EVERY COMPUTE PROCESS, SO THE SECOND, SMALLER VALUE
    IS UNDOUBTEDLY THE WISER CHOICE.
 2. THIS MEMORY CLASS PRESENTLY HAS NO INPUT KEYWORD.
    IT IS ALLOCATED ONCE PER NODE, OUT OF THE OPERATING SYSTEM'S SYSV MEMORY.
 3. THIS VALUE INCLUDES THE INTEGRAL TRANSFORMATION'S DISTRIBUTED MEMORY,
    SO MEMDDI=      1 SHOULD BE ENOUGH FOR THE ENTIRE JOB.
    IT IS ALLOCATED ONLY ONCE, FOR THE WHOLE RUN, SPREAD ACROSS ALL NODES.

 THIS JOB IS USING   1 NODES, WITH  2 PROCESSES/NODE,
 USING INPUT MEMORY VALUES MWORDS=     900 AND MEMDDI=       2
 MOST EFFICIENT VALUES ARE MWORDS=       1 AND MEMDDI=       1
 THE INPUT VALUES MEANS EACH SMP NODE WILL ALLOCATE      23 MBYTES OF MEMORY.

 DDI: Creating Array [5] - 4 x 4 = 16 words.
 DDI: Creating Array [6] - 4 x 4 = 16 words.
 DDI: Creating Array [7] - 4 x 4 = 16 words.
 DDI: Creating Array [8] - 4 x 4 = 16 words.
 DDI: Creating Array [9] - 4 x 4 = 16 words.
 DDI: Creating Array [10] - 16 x 1 = 16 words.
 DDI: Creating Array [11] - 16 x 1 = 16 words.
 INITIALIZING INTEGRALS FOR CCSD
 RUNNING PROCESS-BASED CCSD ITERATIONS
 DDI: Creating Array [12] - 36 x 1 = 36 words.
 ITER:  1   CCSD    CORR. ENERGY:  -0.0165016039   CONV.: -2.6435E-02

 ITER  CPU TIME: TOTAL=     0.0  FORMULAE IN AO,MO BASIS=     0.0     0.0
 ITER WALL TIME: TOTAL=     0.0  FORMULAE IN AO,MO BASIS=     0.0     0.0
 IT IS BENEFICIAL TO ADD MORE PROCESSORS IF THE SCALABLE AO CONTRIBUTION'S TIME
 IS CONSIDERABLY LARGER THAN THE LESS SCALABLE MO CONTRIBUTION'S TIME.

 ITER:  2   CCSD    CORR. ENERGY:  -0.0180314727   CONV.: -9.6010E-03
 ITER:  3   CCSD    CORR. ENERGY:  -0.0189155383   CONV.:  6.8347E-04
 ITER:  4   CCSD    CORR. ENERGY:  -0.0189444268   CONV.: -1.4227E-02
 ITER:  5   CCSD    CORR. ENERGY:  -0.0189452450   CONV.: -1.4098E-02
 ITER:  6   CCSD    CORR. ENERGY:  -0.0189297601   CONV.: -1.4438E-02
 ITER:  7   CCSD    CORR. ENERGY:  -0.0192814650   CONV.: -4.2334E-03
 ITER:  8   CCSD    CORR. ENERGY:  -0.0193122648   CONV.: -1.3482E-03
 ITER:  9   CCSD    CORR. ENERGY:  -0.0193286741   CONV.: -1.2043E-04
 ITER: 10   CCSD    CORR. ENERGY:  -0.0193302593   CONV.:  2.0534E-05
 ITER: 11   CCSD    CORR. ENERGY:  -0.0193299879   CONV.: -2.2427E-06
 ITER: 12   CCSD    CORR. ENERGY:  -0.0193298791   CONV.:  9.0192E-07
 ITER: 13   CCSD    CORR. ENERGY:  -0.0193298146   CONV.:  5.6803E-07
 ITER: 14   CCSD    CORR. ENERGY:  -0.0193297751   CONV.:  6.8652E-08
 ITER: 15   CCSD    CORR. ENERGY:  -0.0193297720   CONV.:  6.8652E-08

     THE    CCSD     ITERATIONS HAVE CONVERGED

    MBPT(2) CORRELATION ENERGY:  -0.0122449506
    CCSD    CORRELATION ENERGY:  -0.0193297720

 T1 DIAGNOSTIC        =     0.02568523
 NORM OF THE T1 VECTOR=     0.03632440
 NORM OF THE T2 VECTOR=     0.14608413

 THE FIVE LARGEST T1 AMPLITUDES ARE:
 T1 AMPLITUDE IS -0.036211 FOR I=   2 -> A=   3
 T1 AMPLITUDE IS -0.002872 FOR I=   2 -> A=   6

 THE FIVE LARGEST SPIN-UNIQUE T2 AMPLITUDES ARE:
 T2 AMPLITUDE IS -0.112652 FOR I,J=   2   2 -> A,B=   6   6
 T2 AMPLITUDE IS  0.055285 FOR I,J=   2   2 -> A,B=   3   6
 T2 AMPLITUDE IS -0.031611 FOR I,J=   2   2 -> A,B=   3   3
 T2 AMPLITUDE IS -0.027731 FOR I,J=   2   2 -> A,B=   4   4
 T2 AMPLITUDE IS -0.027731 FOR I,J=   2   2 -> A,B=   5   5
 PRINTED T2(I-ALPHA,J-BETA -> A-ALPHA,B-BETA) VALUES
 EQUAL   T2(J-ALPHA,I-BETA -> B-ALPHA,A-BETA) AMPLITUDES.

 ....... DONE WITH CC AMPLITUDE ITERATIONS .......
 CPU     0: STEP CPU TIME=     0.03 TOTAL CPU TIME=          0.2 (      0.0 MIN)
 TOTAL WALL CLOCK TIME=          0.2 SECONDS, CPU UTILIZATION IS   100.00%

                      SUMMARY OF RESULTS

      REFERENCE ENERGY:       -7.9532209712
        MBPT(2) ENERGY:       -7.9654659217   CORR.E=  -0.0122449506
        CCSD    ENERGY:       -7.9725507431   CORR.E=  -0.0193297720

 THE FOLLOWING METHOD AND ENERGY WILL BE CONSIDERED THE HIGHEST LEVEL RESULT:
 COUPLED-CLUSTER ENERGY E(CCSD) =       -7.9725507431


 ************************************************
 * CALCULATING ENERGY     5 FOR NUMERIC HESSIAN *
 ************************************************
 MOVING ATOM   1 COORDINATE Y TO       -0.0100000000, AND
 MOVING ATOM   1 COORDINATE X TO        0.0100000000 A.U.
 ...... END OF ONE-ELECTRON INTEGRALS ......
 CPU     0: STEP CPU TIME=     0.00 TOTAL CPU TIME=          0.2 (      0.0 MIN)
 TOTAL WALL CLOCK TIME=          0.2 SECONDS, CPU UTILIZATION IS   100.00%
 TOTAL NUMBER OF NONZERO TWO-ELECTRON INTEGRALS =                 144
          2 INTEGRAL RECORDS WERE STORED ON DISK FILE  8.
  ...... END OF TWO-ELECTRON INTEGRALS .....
 CPU     0: STEP CPU TIME=     0.00 TOTAL CPU TIME=          0.2 (      0.0 MIN)
 TOTAL WALL CLOCK TIME=          0.2 SECONDS, CPU UTILIZATION IS   100.00%

          --------------------------
                 RHF SCF CALCULATION
          --------------------------
     DENSITY MATRIX CONV=  1.00E-06

 ITER EX DEM     TOTAL ENERGY        E CHANGE  DENSITY CHANGE    DIIS ERROR
   1  0  0       -7.9532195447    -7.9532195447   0.000726976   0.000000000
   2  1  0       -7.9532206836    -0.0000011389   0.000325647   0.000000000
   3  2  0       -7.9532209131    -0.0000002295   0.000146213   0.000000000
   4  3  0       -7.9532209594    -0.0000000464   0.000065698   0.000000000
   5  4  0       -7.9532209688    -0.0000000094   0.000029527   0.000000000
   6  5  0       -7.9532209707    -0.0000000019   0.000013271   0.000000000
   7  6  0       -7.9532209711    -0.0000000004   0.000005965   0.000000000
   8  7  0       -7.9532209711    -0.0000000001   0.000002681   0.000000000
   9  8  0       -7.9532209712    -0.0000000000   0.000001205   0.000000000
  10  9  0       -7.9532209712    -0.0000000000   0.000000542   0.000000000

 RHF HAS CONVERGED, NOW COMPUTING EXACT TOTAL FOCK MATRIX
 FOR USE DURING THE COUPLED CLUSTER CALCULATION THAT FOLLOWS.

          -----------------
          DENSITY CONVERGED
          -----------------
     TIME TO FORM FOCK OPERATORS=       0.0 SECONDS (       0.0 SEC/ITER)
     TIME TO SOLVE SCF EQUATIONS=       0.0 SECONDS (       0.0 SEC/ITER)

 FINAL RHF ENERGY IS       -7.9532209712 AFTER  10 ITERATIONS

 LZ VALUE ANALYSIS FOR THE MOS
 ----------------------------------------
 MO     1 (    1) HAS LZ(WEIGHT)= 0.00(100.0%) 
 MO     2 (    2) HAS LZ(WEIGHT)= 0.00(100.0%) 
 MO     3 (    3) HAS LZ(WEIGHT)= 0.00(100.0%) 
 MO     4 (    4) HAS LZ(WEIGHT)=-1.00( 50.0%)  1.00( 50.0%) 
 MO     5 (    4) HAS LZ(WEIGHT)=-1.00( 50.0%)  1.00( 50.0%) 
 MO     6 (    5) HAS LZ(WEIGHT)= 0.00(100.0%) 
 ...... END OF RHF CALCULATION ......
 CPU     0: STEP CPU TIME=     0.00 TOTAL CPU TIME=          0.2 (      0.0 MIN)
 TOTAL WALL CLOCK TIME=          0.2 SECONDS, CPU UTILIZATION IS   100.00%

     ---------------------------
     COUPLED CLUSTER CALCULATION
     ---------------------------
 CCTYP                        =CCSD    
 TOTAL NUMBER OF MOS          =     6
 NUMBER OF OCCUPIED MOS       =     2
 NUMBER OF FROZEN CORE MOS    =     1
 NUMBER OF FROZEN VIRTUAL MOS =     0
 MAXIMUM CC ITERATIONS        =    30
 MAXIMUM DIIS ITERATIONS      =     3
 CONVERGENCE CRITERION FOR CC =     7
 AMPLITUDE ACCURACY THRESHOLD = 0.0E+00

     --------------------------------------------
     PARTIAL TWO ELECTRON INTEGRAL TRANSFORMATION
     --------------------------------------------

 NUMBER OF CORE MOLECULAR ORBITALS     =    1
 NUMBER OF OCCUPIED MOLECULAR ORBITALS =    2
 TOTAL NUMBER OF MOLECULAR ORBITALS    =    6
 TOTAL NUMBER OF ATOMIC ORBITALS       =    6
 THRESHOLD FOR KEEPING TRANSFORMED 2E- INTEGRALS = 1.000E-09

 -------------------------------     ------------------------------
 DISTRIBUTED DATA TRANSFORMATION     PROGRAM WRITTEN BY G. FLETCHER
 -------------------------------     ------------------------------

 THE DISTRIBUTED MEMORY REQUIRED FOR THIS STEP IS MEMDDI=         1 MWORDS
 CREATING DISTRIBUTED STORAGE FOR [VIR VIR|VIR OCC] INTEGRALS
 DDI: Creating Array [0] - 21 x 4 = 84 words.
 CREATING DISTRIBUTED STORAGE FOR [VIR OCC|VIR OCC] INTEGRALS
 DDI: Creating Array [1] - 36 x 1 = 36 words.
 CREATING DISTRIBUTED STORAGE FOR [VIR OCC|OCC OCC] INTEGRALS
 DDI: Creating Array [2] - 4 x 1 = 4 words.
 CREATING DISTRIBUTED STORAGE FOR [OCC OCC|OCC OCC] INTEGRALS
 DDI: Creating Array [3] - 1 x 1 = 1 words.
 CREATING DISTRIBUTED STORAGE FOR [VIR VIR|OCC OCC] INTEGRALS
 DDI: Creating Array [4] - 21 x 1 = 21 words.
 FOR    2 PROCESSORS, THE REPLICATED MEMORY NEEDED IS       44830 WORDS.

      DIRECT 4-INDEX TRANSFORMATION 
      SCHWARZ INEQUALITY TEST SKIPPED          0 INTEGRAL BLOCKS
 ... END OF INTEGRAL TRANSFORMATION ...
 CPU     0: STEP CPU TIME=     0.00 TOTAL CPU TIME=          0.2 (      0.0 MIN)
 TOTAL WALL CLOCK TIME=          0.2 SECONDS, CPU UTILIZATION IS   100.00%

   -----------------------
   COUPLED-CLUSTER PROGRAM
   -----------------------

   -------------------------------------------------------
   P.PIECUCH, S.A.KUCHARSKI, M.WLOCH, K.KOWALSKI, M.MUSIAL
   -------------------------------------------------------

 THE FOLLOWING CALCULATIONS WILL BE PERFORMED:
                                                     CCSD   

 THE FOLLOWING ENERGY WILL BE CONSIDERED THE HIGHEST LEVEL:    CCSD   
 THE AVAILABLE REPLICATED MEMORY IS   899999776 WORDS.
 CONVERGENCE THRESHOLD:   1.0E-07
 MAXIMUM NUMBER OF ITERATIONS:   30

 RUNNING THE DISTRIBUTED DATA, PARALLEL CCSD/CCSD(T) PROGRAM...

 PARALLEL CODE WRITTEN BY RYAN M. OLSON AND JONATHAN L. BENTZ,
 BASED ON SERIAL CODE OF P.PIECUCH, S.A.KUCHARSKI, K.KOWALSKI, M.MUSIAL

 1A.  REPLICATED MEMORY REQUIRED FOR PROCESS-BASED CCSD IS        45279 WORDS.
 1B.  REPLICATED MEMORY REQUIRED FOR    NODE-BASED CCSD IS        45183 WORDS.
 THIS RUN WILL USE        45183 WORDS OF REPLICATED MEMORY.
 2.       SHARED MEMORY REQUIRED FOR THE CCSD ITERS IS               61 WORDS.
 3.  DISTRIBUTED MEMORY FOR THIS JOB IS MEMDDI=       1 MWORDS.

 EXPLANATION (WHAT TO PUT IN $SYSTEM INPUT):
 1. THE PROCESS-BASED PARALLEL CCSD WILL BE CHOSEN IF MWORDS=       1,
    OTHERWISE, ENTER MWORDS=       1 TO RUN THE NODE-BASED PARALLEL CCSD.
    IT IS ALLOCATED BY EVERY COMPUTE PROCESS, SO THE SECOND, SMALLER VALUE
    IS UNDOUBTEDLY THE WISER CHOICE.
 2. THIS MEMORY CLASS PRESENTLY HAS NO INPUT KEYWORD.
    IT IS ALLOCATED ONCE PER NODE, OUT OF THE OPERATING SYSTEM'S SYSV MEMORY.
 3. THIS VALUE INCLUDES THE INTEGRAL TRANSFORMATION'S DISTRIBUTED MEMORY,
    SO MEMDDI=      1 SHOULD BE ENOUGH FOR THE ENTIRE JOB.
    IT IS ALLOCATED ONLY ONCE, FOR THE WHOLE RUN, SPREAD ACROSS ALL NODES.

 THIS JOB IS USING   1 NODES, WITH  2 PROCESSES/NODE,
 USING INPUT MEMORY VALUES MWORDS=     900 AND MEMDDI=       2
 MOST EFFICIENT VALUES ARE MWORDS=       1 AND MEMDDI=       1
 THE INPUT VALUES MEANS EACH SMP NODE WILL ALLOCATE      23 MBYTES OF MEMORY.

 DDI: Creating Array [5] - 4 x 4 = 16 words.
 DDI: Creating Array [6] - 4 x 4 = 16 words.
 DDI: Creating Array [7] - 4 x 4 = 16 words.
 DDI: Creating Array [8] - 4 x 4 = 16 words.
 DDI: Creating Array [9] - 4 x 4 = 16 words.
 DDI: Creating Array [10] - 16 x 1 = 16 words.
 DDI: Creating Array [11] - 16 x 1 = 16 words.
 INITIALIZING INTEGRALS FOR CCSD
 RUNNING PROCESS-BASED CCSD ITERATIONS
 DDI: Creating Array [12] - 36 x 1 = 36 words.
 ITER:  1   CCSD    CORR. ENERGY:  -0.0165016039   CONV.: -2.6435E-02

 ITER  CPU TIME: TOTAL=     0.0  FORMULAE IN AO,MO BASIS=     0.0     0.0
 ITER WALL TIME: TOTAL=     0.0  FORMULAE IN AO,MO BASIS=     0.0     0.0
 IT IS BENEFICIAL TO ADD MORE PROCESSORS IF THE SCALABLE AO CONTRIBUTION'S TIME
 IS CONSIDERABLY LARGER THAN THE LESS SCALABLE MO CONTRIBUTION'S TIME.

 ITER:  2   CCSD    CORR. ENERGY:  -0.0180314727   CONV.: -9.6010E-03
 ITER:  3   CCSD    CORR. ENERGY:  -0.0189155383   CONV.:  6.8347E-04
 ITER:  4   CCSD    CORR. ENERGY:  -0.0189444268   CONV.: -1.4227E-02
 ITER:  5   CCSD    CORR. ENERGY:  -0.0189452450   CONV.: -1.4098E-02
 ITER:  6   CCSD    CORR. ENERGY:  -0.0189297601   CONV.: -1.4438E-02
 ITER:  7   CCSD    CORR. ENERGY:  -0.0192814650   CONV.: -4.2334E-03
 ITER:  8   CCSD    CORR. ENERGY:  -0.0193122648   CONV.: -1.3482E-03
 ITER:  9   CCSD    CORR. ENERGY:  -0.0193286741   CONV.: -1.2043E-04
 ITER: 10   CCSD    CORR. ENERGY:  -0.0193302593   CONV.:  2.0534E-05
 ITER: 11   CCSD    CORR. ENERGY:  -0.0193299879   CONV.: -2.2427E-06
 ITER: 12   CCSD    CORR. ENERGY:  -0.0193298791   CONV.:  9.0192E-07
 ITER: 13   CCSD    CORR. ENERGY:  -0.0193298146   CONV.:  5.6803E-07
 ITER: 14   CCSD    CORR. ENERGY:  -0.0193297751   CONV.:  6.8652E-08
 ITER: 15   CCSD    CORR. ENERGY:  -0.0193297720   CONV.:  6.8652E-08

     THE    CCSD     ITERATIONS HAVE CONVERGED

    MBPT(2) CORRELATION ENERGY:  -0.0122449506
    CCSD    CORRELATION ENERGY:  -0.0193297720

 T1 DIAGNOSTIC        =     0.02568523
 NORM OF THE T1 VECTOR=     0.03632440
 NORM OF THE T2 VECTOR=     0.14608413

 THE FIVE LARGEST T1 AMPLITUDES ARE:
 T1 AMPLITUDE IS -0.036211 FOR I=   2 -> A=   3
 T1 AMPLITUDE IS -0.002872 FOR I=   2 -> A=   6

 THE FIVE LARGEST SPIN-UNIQUE T2 AMPLITUDES ARE:
 T2 AMPLITUDE IS -0.112652 FOR I,J=   2   2 -> A,B=   6   6
 T2 AMPLITUDE IS  0.055285 FOR I,J=   2   2 -> A,B=   3   6
 T2 AMPLITUDE IS -0.031611 FOR I,J=   2   2 -> A,B=   3   3
 T2 AMPLITUDE IS -0.027731 FOR I,J=   2   2 -> A,B=   4   4
 T2 AMPLITUDE IS -0.027731 FOR I,J=   2   2 -> A,B=   5   5
 PRINTED T2(I-ALPHA,J-BETA -> A-ALPHA,B-BETA) VALUES
[...]
 ITER: 11   CCSD    CORR. ENERGY:  -0.0194803838   CONV.:  2.1281E-06
 ITER: 12   CCSD    CORR. ENERGY:  -0.0194802892   CONV.:  9.2387E-07
 ITER: 13   CCSD    CORR. ENERGY:  -0.0194802288   CONV.:  5.8953E-07
 ITER: 14   CCSD    CORR. ENERGY:  -0.0194801875   CONV.:  6.7216E-08
 ITER: 15   CCSD    CORR. ENERGY:  -0.0194801842   CONV.:  6.7216E-08

     THE    CCSD     ITERATIONS HAVE CONVERGED

    MBPT(2) CORRELATION ENERGY:  -0.0123176901
    CCSD    CORRELATION ENERGY:  -0.0194801842

 T1 DIAGNOSTIC        =     0.02590158
 NORM OF THE T1 VECTOR=     0.03663037
 NORM OF THE T2 VECTOR=     0.14709516

 THE FIVE LARGEST T1 AMPLITUDES ARE:
 T1 AMPLITUDE IS -0.036513 FOR I=   2 -> A=   3
 T1 AMPLITUDE IS  0.002931 FOR I=   2 -> A=   6

 THE FIVE LARGEST SPIN-UNIQUE T2 AMPLITUDES ARE:
 T2 AMPLITUDE IS -0.113407 FOR I,J=   2   2 -> A,B=   6   6
 T2 AMPLITUDE IS -0.055799 FOR I,J=   2   2 -> A,B=   3   6
 T2 AMPLITUDE IS -0.032014 FOR I,J=   2   2 -> A,B=   3   3
 T2 AMPLITUDE IS -0.027602 FOR I,J=   2   2 -> A,B=   5   5
 T2 AMPLITUDE IS -0.027602 FOR I,J=   2   2 -> A,B=   4   4
 PRINTED T2(I-ALPHA,J-BETA -> A-ALPHA,B-BETA) VALUES
 EQUAL   T2(J-ALPHA,I-BETA -> B-ALPHA,A-BETA) AMPLITUDES.

 ....... DONE WITH CC AMPLITUDE ITERATIONS .......
 CPU     0: STEP CPU TIME=     0.02 TOTAL CPU TIME=          2.2 (      0.0 MIN)
 TOTAL WALL CLOCK TIME=          2.2 SECONDS, CPU UTILIZATION IS   100.00%

                      SUMMARY OF RESULTS

      REFERENCE ENERGY:       -7.9530527700
        MBPT(2) ENERGY:       -7.9653704602   CORR.E=  -0.0123176901
        CCSD    ENERGY:       -7.9725329542   CORR.E=  -0.0194801842

 THE FOLLOWING METHOD AND ENERGY WILL BE CONSIDERED THE HIGHEST LEVEL RESULT:
 COUPLED-CLUSTER ENERGY E(CCSD) =       -7.9725329542


 ************************************************
 * CALCULATING ENERGY    72 FOR NUMERIC HESSIAN *
 ************************************************
 MOVING ATOM   2 COORDINATE Z TO        1.4367439135 A.U.
 ...... END OF ONE-ELECTRON INTEGRALS ......
 CPU     0: STEP CPU TIME=     0.00 TOTAL CPU TIME=          2.2 (      0.0 MIN)
 TOTAL WALL CLOCK TIME=          2.2 SECONDS, CPU UTILIZATION IS   100.00%
 TOTAL NUMBER OF NONZERO TWO-ELECTRON INTEGRALS =                  83
          2 INTEGRAL RECORDS WERE STORED ON DISK FILE  8.
  ...... END OF TWO-ELECTRON INTEGRALS .....
 CPU     0: STEP CPU TIME=     0.01 TOTAL CPU TIME=          2.2 (      0.0 MIN)
 TOTAL WALL CLOCK TIME=          2.2 SECONDS, CPU UTILIZATION IS   100.45%

          --------------------------
                 RHF SCF CALCULATION
          --------------------------
     DENSITY MATRIX CONV=  1.00E-06

 ITER EX DEM     TOTAL ENERGY        E CHANGE  DENSITY CHANGE    DIIS ERROR
   1  0  0       -7.9533472128    -7.9533472128   0.000454205   0.000000000
   2  1  0       -7.9533474468    -0.0000002340   0.000240904   0.000000000
   3  2  0       -7.9533474922    -0.0000000454   0.000127120   0.000000000
   4  3  0       -7.9533475046    -0.0000000125   0.000067264   0.000000000
   5  4  0       -7.9533475081    -0.0000000035   0.000035634   0.000000000
   6  5  0       -7.9533475091    -0.0000000010   0.000018883   0.000000000
   7  6  0       -7.9533475094    -0.0000000003   0.000010008   0.000000000
   8  7  0       -7.9533475095    -0.0000000001   0.000005304   0.000000000
   9  8  0       -7.9533475095    -0.0000000000   0.000002811   0.000000000
  10  9  0       -7.9533475095    -0.0000000000   0.000001490   0.000000000
  11 10  0       -7.9533475095    -0.0000000000   0.000000790   0.000000000

 RHF HAS CONVERGED, NOW COMPUTING EXACT TOTAL FOCK MATRIX
 FOR USE DURING THE COUPLED CLUSTER CALCULATION THAT FOLLOWS.

          -----------------
          DENSITY CONVERGED
          -----------------
     TIME TO FORM FOCK OPERATORS=       0.0 SECONDS (       0.0 SEC/ITER)
     TIME TO SOLVE SCF EQUATIONS=       0.0 SECONDS (       0.0 SEC/ITER)

 FINAL RHF ENERGY IS       -7.9533475095 AFTER  11 ITERATIONS

 LZ VALUE ANALYSIS FOR THE MOS
 ----------------------------------------
 MO     1 (    1) HAS LZ(WEIGHT)= 0.00(100.0%) 
 MO     2 (    2) HAS LZ(WEIGHT)= 0.00(100.0%) 
 MO     3 (    3) HAS LZ(WEIGHT)= 0.00(100.0%) 
 MO     4 (    4) HAS LZ(WEIGHT)=-1.00( 50.0%)  1.00( 50.0%) 
 MO     5 (    4) HAS LZ(WEIGHT)=-1.00( 50.0%)  1.00( 50.0%) 
 MO     6 (    5) HAS LZ(WEIGHT)= 0.00(100.0%) 
 ...... END OF RHF CALCULATION ......
 CPU     0: STEP CPU TIME=     0.00 TOTAL CPU TIME=          2.2 (      0.0 MIN)
 TOTAL WALL CLOCK TIME=          2.2 SECONDS, CPU UTILIZATION IS   100.45%

     ---------------------------
     COUPLED CLUSTER CALCULATION
     ---------------------------
 CCTYP                        =CCSD    
 TOTAL NUMBER OF MOS          =     6
 NUMBER OF OCCUPIED MOS       =     2
 NUMBER OF FROZEN CORE MOS    =     1
 NUMBER OF FROZEN VIRTUAL MOS =     0
 MAXIMUM CC ITERATIONS        =    30
 MAXIMUM DIIS ITERATIONS      =     3
 CONVERGENCE CRITERION FOR CC =     7
 AMPLITUDE ACCURACY THRESHOLD = 0.0E+00

     --------------------------------------------
     PARTIAL TWO ELECTRON INTEGRAL TRANSFORMATION
     --------------------------------------------

 NUMBER OF CORE MOLECULAR ORBITALS     =    1
 NUMBER OF OCCUPIED MOLECULAR ORBITALS =    2
 TOTAL NUMBER OF MOLECULAR ORBITALS    =    6
 TOTAL NUMBER OF ATOMIC ORBITALS       =    6
 THRESHOLD FOR KEEPING TRANSFORMED 2E- INTEGRALS = 1.000E-09

 -------------------------------     ------------------------------
 DISTRIBUTED DATA TRANSFORMATION     PROGRAM WRITTEN BY G. FLETCHER
 -------------------------------     ------------------------------

 THE DISTRIBUTED MEMORY REQUIRED FOR THIS STEP IS MEMDDI=         1 MWORDS
 CREATING DISTRIBUTED STORAGE FOR [VIR VIR|VIR OCC] INTEGRALS
 DDI: Creating Array [0] - 21 x 4 = 84 words.
 CREATING DISTRIBUTED STORAGE FOR [VIR OCC|VIR OCC] INTEGRALS
 DDI: Creating Array [1] - 36 x 1 = 36 words.
 CREATING DISTRIBUTED STORAGE FOR [VIR OCC|OCC OCC] INTEGRALS
 DDI: Creating Array [2] - 4 x 1 = 4 words.
 CREATING DISTRIBUTED STORAGE FOR [OCC OCC|OCC OCC] INTEGRALS
 DDI: Creating Array [3] - 1 x 1 = 1 words.
 CREATING DISTRIBUTED STORAGE FOR [VIR VIR|OCC OCC] INTEGRALS
 DDI: Creating Array [4] - 21 x 1 = 21 words.
 FOR    2 PROCESSORS, THE REPLICATED MEMORY NEEDED IS       44830 WORDS.

      DIRECT 4-INDEX TRANSFORMATION 
      SCHWARZ INEQUALITY TEST SKIPPED          0 INTEGRAL BLOCKS
 ... END OF INTEGRAL TRANSFORMATION ...
 CPU     0: STEP CPU TIME=     0.00 TOTAL CPU TIME=          2.2 (      0.0 MIN)
 TOTAL WALL CLOCK TIME=          2.2 SECONDS, CPU UTILIZATION IS   100.45%

   -----------------------
   COUPLED-CLUSTER PROGRAM
   -----------------------

   -------------------------------------------------------
   P.PIECUCH, S.A.KUCHARSKI, M.WLOCH, K.KOWALSKI, M.MUSIAL
   -------------------------------------------------------

 THE FOLLOWING CALCULATIONS WILL BE PERFORMED:
                                                     CCSD   

 THE FOLLOWING ENERGY WILL BE CONSIDERED THE HIGHEST LEVEL:    CCSD   
 THE AVAILABLE REPLICATED MEMORY IS   899999776 WORDS.
 CONVERGENCE THRESHOLD:   1.0E-07
 MAXIMUM NUMBER OF ITERATIONS:   30

 RUNNING THE DISTRIBUTED DATA, PARALLEL CCSD/CCSD(T) PROGRAM...

 PARALLEL CODE WRITTEN BY RYAN M. OLSON AND JONATHAN L. BENTZ,
 BASED ON SERIAL CODE OF P.PIECUCH, S.A.KUCHARSKI, K.KOWALSKI, M.MUSIAL

 1A.  REPLICATED MEMORY REQUIRED FOR PROCESS-BASED CCSD IS        45279 WORDS.
 1B.  REPLICATED MEMORY REQUIRED FOR    NODE-BASED CCSD IS        45183 WORDS.
 THIS RUN WILL USE        45183 WORDS OF REPLICATED MEMORY.
 2.       SHARED MEMORY REQUIRED FOR THE CCSD ITERS IS               61 WORDS.
 3.  DISTRIBUTED MEMORY FOR THIS JOB IS MEMDDI=       1 MWORDS.

 EXPLANATION (WHAT TO PUT IN $SYSTEM INPUT):
 1. THE PROCESS-BASED PARALLEL CCSD WILL BE CHOSEN IF MWORDS=       1,
    OTHERWISE, ENTER MWORDS=       1 TO RUN THE NODE-BASED PARALLEL CCSD.
    IT IS ALLOCATED BY EVERY COMPUTE PROCESS, SO THE SECOND, SMALLER VALUE
    IS UNDOUBTEDLY THE WISER CHOICE.
 2. THIS MEMORY CLASS PRESENTLY HAS NO INPUT KEYWORD.
    IT IS ALLOCATED ONCE PER NODE, OUT OF THE OPERATING SYSTEM'S SYSV MEMORY.
 3. THIS VALUE INCLUDES THE INTEGRAL TRANSFORMATION'S DISTRIBUTED MEMORY,
    SO MEMDDI=      1 SHOULD BE ENOUGH FOR THE ENTIRE JOB.
    IT IS ALLOCATED ONLY ONCE, FOR THE WHOLE RUN, SPREAD ACROSS ALL NODES.

 THIS JOB IS USING   1 NODES, WITH  2 PROCESSES/NODE,
 USING INPUT MEMORY VALUES MWORDS=     900 AND MEMDDI=       2
 MOST EFFICIENT VALUES ARE MWORDS=       1 AND MEMDDI=       1
 THE INPUT VALUES MEANS EACH SMP NODE WILL ALLOCATE      23 MBYTES OF MEMORY.

 DDI: Creating Array [5] - 4 x 4 = 16 words.
 DDI: Creating Array [6] - 4 x 4 = 16 words.
 DDI: Creating Array [7] - 4 x 4 = 16 words.
 DDI: Creating Array [8] - 4 x 4 = 16 words.
 DDI: Creating Array [9] - 4 x 4 = 16 words.
 DDI: Creating Array [10] - 16 x 1 = 16 words.
 DDI: Creating Array [11] - 16 x 1 = 16 words.
 INITIALIZING INTEGRALS FOR CCSD
 RUNNING PROCESS-BASED CCSD ITERATIONS
 DDI: Creating Array [12] - 36 x 1 = 36 words.
 ITER:  1   CCSD    CORR. ENERGY:  -0.0163934603   CONV.: -2.6221E-02

 ITER  CPU TIME: TOTAL=     0.0  FORMULAE IN AO,MO BASIS=     0.0     0.0
 ITER WALL TIME: TOTAL=     0.0  FORMULAE IN AO,MO BASIS=     0.0     0.0
 IT IS BENEFICIAL TO ADD MORE PROCESSORS IF THE SCALABLE AO CONTRIBUTION'S TIME
 IS CONSIDERABLY LARGER THAN THE LESS SCALABLE MO CONTRIBUTION'S TIME.

 ITER:  2   CCSD    CORR. ENERGY:  -0.0179049766   CONV.: -9.4948E-03
 ITER:  3   CCSD    CORR. ENERGY:  -0.0187738640   CONV.:  6.7962E-04
 ITER:  4   CCSD    CORR. ENERGY:  -0.0188025713   CONV.: -1.4126E-02
 ITER:  5   CCSD    CORR. ENERGY:  -0.0188032796   CONV.: -1.3997E-02
 ITER:  6   CCSD    CORR. ENERGY:  -0.0187881883   CONV.: -1.4334E-02
 ITER:  7   CCSD    CORR. ENERGY:  -0.0191358312   CONV.: -4.1780E-03
 ITER:  8   CCSD    CORR. ENERGY:  -0.0191665063   CONV.: -1.3253E-03
 ITER:  9   CCSD    CORR. ENERGY:  -0.0191821592   CONV.: -1.1992E-04
 ITER: 10   CCSD    CORR. ENERGY:  -0.0191834543   CONV.:  2.0306E-05
 ITER: 11   CCSD    CORR. ENERGY:  -0.0191831526   CONV.:  2.3354E-06
 ITER: 12   CCSD    CORR. ENERGY:  -0.0191830319   CONV.:  8.7146E-07
 ITER: 13   CCSD    CORR. ENERGY:  -0.0191829647   CONV.:  5.4298E-07
 ITER: 14   CCSD    CORR. ENERGY:  -0.0191829272   CONV.:  6.9437E-08
 ITER: 15   CCSD    CORR. ENERGY:  -0.0191829242   CONV.:  6.9437E-08

     THE    CCSD     ITERATIONS HAVE CONVERGED

    MBPT(2) CORRELATION ENERGY:  -0.0121739227
    CCSD    CORRELATION ENERGY:  -0.0191829242

 T1 DIAGNOSTIC        =     0.02547381
 NORM OF THE T1 VECTOR=     0.03602541
 NORM OF THE T2 VECTOR=     0.14509575

 THE FIVE LARGEST T1 AMPLITUDES ARE:
 T1 AMPLITUDE IS -0.035915 FOR I=   2 -> A=   3
 T1 AMPLITUDE IS  0.002812 FOR I=   2 -> A=   6

 THE FIVE LARGEST SPIN-UNIQUE T2 AMPLITUDES ARE:
 T2 AMPLITUDE IS -0.111910 FOR I,J=   2   2 -> A,B=   6   6
 T2 AMPLITUDE IS -0.054781 FOR I,J=   2   2 -> A,B=   3   6
 T2 AMPLITUDE IS -0.031216 FOR I,J=   2   2 -> A,B=   3   3
 T2 AMPLITUDE IS -0.027860 FOR I,J=   2   2 -> A,B=   5   5
 T2 AMPLITUDE IS -0.027860 FOR I,J=   2   2 -> A,B=   4   4
 PRINTED T2(I-ALPHA,J-BETA -> A-ALPHA,B-BETA) VALUES
 EQUAL   T2(J-ALPHA,I-BETA -> B-ALPHA,A-BETA) AMPLITUDES.

 ....... DONE WITH CC AMPLITUDE ITERATIONS .......
 CPU     0: STEP CPU TIME=     0.02 TOTAL CPU TIME=          2.3 (      0.0 MIN)
 TOTAL WALL CLOCK TIME=          2.3 SECONDS, CPU UTILIZATION IS   100.00%

                      SUMMARY OF RESULTS

      REFERENCE ENERGY:       -7.9533475095
        MBPT(2) ENERGY:       -7.9655214322   CORR.E=  -0.0121739227
        CCSD    ENERGY:       -7.9725304337   CORR.E=  -0.0191829242

 THE FOLLOWING METHOD AND ENERGY WILL BE CONSIDERED THE HIGHEST LEVEL RESULT:
 COUPLED-CLUSTER ENERGY E(CCSD) =       -7.9725304337

 ...... END OF NUMERICAL HESSIAN CALCULATION ......

          ---------------
          ENERGY GRADIENT
          ---------------

 UNITS ARE HARTREE/BOHR    E'X               E'Y               E'Z 
    1 LI              -0.000000000       0.000000000       0.000063014
    2 H               -0.000000000      -0.000000000      -0.000063014

          -------------------------------
          CARTESIAN FORCE CONSTANT MATRIX
          -------------------------------

                                   1                          2
                               LI                         H         
                          X        Y        Z        X        Y        Z
  1   LI           X-0.000017-0.000000 0.000000 0.000017 0.000000-0.000000
                   Y-0.000000-0.000017-0.000000 0.000000 0.000017-0.000000
                   Z 0.000000-0.000000 0.095237-0.000000 0.000000-0.095237
  2   H            X 0.000017 0.000000-0.000000-0.000017-0.000000 0.000000
                   Y 0.000000 0.000017 0.000000-0.000000-0.000017 0.000000
                   Z-0.000000-0.000000-0.095237 0.000000 0.000000 0.095237

          --------------------------------------------------------
          NORMAL COORDINATE ANALYSIS IN THE HARMONIC APPROXIMATION
          --------------------------------------------------------

          ATOMIC WEIGHTS (AMU)

    1     LI                7.01600
    2     H                 1.00782

 MODES    1 TO    5 ARE TAKEN AS ROTATIONS AND TRANSLATIONS.

 ANALYZING SYMMETRY OF NORMAL MODES...

     FREQUENCIES IN CM**-1, IR INTENSITIES IN DEBYE**2/AMU-ANGSTROM**2,
     REDUCED MASSES IN AMU.

                            1           2           3           4           5
       FREQUENCY:        22.29       22.29        1.11        1.11        1.11  
        SYMMETRY:         A           A           A           A           A   
    REDUCED MASS:      1.13132     1.13132     4.01190     3.98654     3.98655

  1   LI           X -0.09313476 -0.09744023  0.00487611  0.32071597  0.14656112
                   Y -0.09744043  0.09313474  0.00718194 -0.14663509  0.32063875
                   Z -0.00000011  0.00000008  0.35292119 -0.00145020 -0.00856830
  2   H            X  0.64290518  0.67262689  0.00491752  0.32343679  0.14780464
                   Y  0.67262669 -0.64290520  0.00724329 -0.14787897  0.32335945
                   Z -0.00000011  0.00000008  0.35292067 -0.00145020 -0.00856829

 TRANS. SAYVETZ    X -0.00549756 -0.00575045  0.03916677  2.57611096  1.17723404
                   Y -0.00575206  0.00549737  0.05768848 -1.17782793  2.57549124
                   Z -0.00000086  0.00000065  2.83177735 -0.01163619 -0.06875052
               TOTAL  0.00795671  0.00795543  2.83263569  2.83262453  2.83262453

   ROT. SAYVETZ    X -1.97712918  1.88976521 -0.00015750  0.00319363 -0.00698533
                   Y  1.88976521  1.97712919  0.00010634  0.00698563  0.00319269
                   Z  0.00000000  0.00000000  0.00000000  0.00000000  0.00000000
               TOTAL  2.73500500  2.73500500  0.00019004  0.00768104  0.00768038

                            6
       FREQUENCY:      1689.90  
        SYMMETRY:         A   
    REDUCED MASS:      1.12929

  1   LI           X -0.00000000
                   Y -0.00000000
                   Z -0.13380012
  2   H            X  0.00000000
                   Y  0.00000000
                   Z  0.93145437

 TRANS. SAYVETZ    X -0.00000000
                   Y -0.00000000
                   Z  0.00000139
               TOTAL  0.00000139

   ROT. SAYVETZ    X -0.00000000
                   Y  0.00000000
                   Z  0.00000000
               TOTAL  0.00000000

 REFERENCE ON SAYVETZ CONDITIONS - A. SAYVETZ, J.CHEM.PHYS., 7, 383-389(1939).

 NOTE - THE MODES J,K ARE ORTHONORMALIZED ACCORDING TO
 SUM ON I   M(I) * (X(I,J)*X(I,K) + Y(I,J)*Y(I,K) + Z(I,J)*Z(I,K)) = DELTA(J,K)

     -------------------------------
     THERMOCHEMISTRY AT T=  298.15 K
     -------------------------------

 USING IDEAL GAS, RIGID ROTOR, HARMONIC NORMAL MODE APPROXIMATIONS.
 P=  1.01325E+05 PASCAL.
 ALL FREQUENCIES ARE SCALED BY   1.00000
 THE MOMENTS OF INERTIA ARE (IN AMU*BOHR**2)
      0.00000     7.48031     7.48031
 THE ROTATIONAL SYMMETRY NUMBER IS  1.0
 THE ROTATIONAL CONSTANTS ARE (IN GHZ)
      0.00000   241.04454   241.04454
      6 -      6 VIBRATIONAL MODES ARE USED IN THERMOCHEMISTRY.
 THE HARMONIC ZERO POINT ENERGY IS (SCALED BY   1.000)
        0.003850 HARTREE/MOLECULE      844.950439 CM**-1/MOLECULE 
        2.415837 KCAL/MOL               10.107862 KJ/MOL

               Q               LN Q
 ELEC.     1.00000E+00       0.000000
 TRANS.    8.93359E+05      13.702744
 ROT.      2.57492E+01       3.248404
 VIB.      1.00029E+00       0.000287
 TOT.      2.30099E+07      16.951435

              E         H         G         CV        CP        S
           KJ/MOL    KJ/MOL    KJ/MOL   J/MOL-K   J/MOL-K   J/MOL-K
 ELEC.      0.000     0.000     0.000     0.000     0.000     0.000
 TRANS.     3.718     6.197   -33.968    12.472    20.786   134.716
 ROT.       2.479     2.479    -8.053     8.314     8.314    35.323
 VIB.      10.114    10.114    10.107     0.159     0.159     0.022
 TOTAL     16.311    18.790   -31.914    20.945    29.259   170.061
 VIB. THERMAL CORRECTION E(T)-E(0) = H(T)-H(0) =     5.810 J/MOL

              E         H         G         CV        CP        S
         KCAL/MOL  KCAL/MOL  KCAL/MOL CAL/MOL-K CAL/MOL-K CAL/MOL-K
 ELEC.      0.000     0.000     0.000     0.000     0.000     0.000
 TRANS.     0.889     1.481    -8.119     2.981     4.968    32.198
 ROT.       0.592     0.592    -1.925     1.987     1.987     8.442
 VIB.       2.417     2.417     2.416     0.038     0.038     0.005
 TOTAL      3.898     4.491    -7.628     5.006     6.993    40.646
 VIB. THERMAL CORRECTION E(T)-E(0) = H(T)-H(0) =     1.389 CAL/MOL
 ......END OF NORMAL COORDINATE ANALYSIS......
 CPU     0: STEP CPU TIME=     0.01 TOTAL CPU TIME=          2.3 (      0.0 MIN)
 TOTAL WALL CLOCK TIME=          2.3 SECONDS, CPU UTILIZATION IS   100.44%
                580000  WORDS OF DYNAMIC MEMORY USED
 EXECUTION OF GAMESS TERMINATED NORMALLY Tue Aug 11 20:30:59 2020
 DDI: 265336 bytes (0.3 MB / 0 MWords) used by master data server.

 ----------------------------------------
 CPU timing information for all processes
 ========================================
 0: 1.831 + 0.461 = 2.292
 1: 1.869 + 0.422 = 2.291
 2: 2.106 + 2.186 = 4.292
 3: 2.151 + 2.139 = 4.291
 ----------------------------------------
----- accounting info -----
Files used on the master node 22ec555504ab were:
-rw-rw-r-- 1 alain alain     387 Aug 11 20:30 /home/alain/projects/02-lih-soran/lih_hessian_ccsd.F05
-rw-rw-r-- 1 alain alain  180016 Aug 11 20:30 /home/alain/projects/02-lih-soran/lih_hessian_ccsd.F08
-rw-rw-r-- 1 alain alain  180016 Aug 11 20:30 /home/alain/projects/02-lih-soran/lih_hessian_ccsd.F08.001
-rw-rw-r-- 1 alain alain     176 Aug 11 20:30 /home/alain/projects/02-lih-soran/lih_hessian_ccsd.F09
-rw-rw-r-- 1 alain alain 1865040 Aug 11 20:30 /home/alain/projects/02-lih-soran/lih_hessian_ccsd.F10
-rw-rw-r-- 1 alain alain  388608 Aug 11 20:30 /home/alain/projects/02-lih-soran/lih_hessian_ccsd.F70
-rw-rw-r-- 1 alain alain     960 Aug 11 20:30 /home/alain/projects/02-lih-soran/lih_hessian_ccsd.F71
-rw-rw-r-- 1 alain alain      64 Aug 11 20:30 /home/alain/projects/02-lih-soran/lih_hessian_ccsd.F73
-rw-rw-r-- 1 alain alain     256 Aug 11 20:30 /home/alain/projects/02-lih-soran/lih_hessian_ccsd.F74
-rw-rw-r-- 1 alain alain    4204 Aug 11 20:30 /home/alain/projects/02-lih-soran/lih_hessian_ccsd.dat
-rw-rw-r-- 1 alain alain     387 Aug 11 20:30 /home/alain/projects/02-lih-soran/lih_hessian_ccsd.inp
-rw-rw-r-- 1 alain alain       0 Aug 11 20:30 /home/alain/projects/02-lih-soran/lih_hessian_ccsd.nodes.mpd
-rw-rw-r-- 1 alain alain  758656 Aug 11 20:31 /home/alain/projects/02-lih-soran/lih_hessian_ccsd.out
-rw-rw-r-- 1 alain alain    2847 Aug 11 20:30 /home/alain/projects/02-lih-soran/lih_hessian_ccsd.rst
Tue Aug 11 20:31:01 UTC 2020
8.1u 5.4s 0:04.62 292.6% 0+0k 0+27408io 8pf+0w
